<?xml version="1.0"?>
<VTKFile type="UnstructuredGrid" version="0.1" byte_order="LittleEndian" header_type="UInt32">
  <UnstructuredGrid>
    <Piece NumberOfPoints="1089" NumberOfCells="1024">
      <PointData>
        <DataArray type="Float64" Name="concentration" format="ascii" RangeMin="0" RangeMax="1">
          1 0.89574712292 0.7908450903 0.68777715286 0.58885442685 0.49607611869
          0.41102344439 0.33479613951 0.26799455185 0.21074446202 0.16275692955 0.12341227716
          0.091856091364 0.067095737657 0.048087957254 0.033811045348 0.023318288878 0.015772233286
          0.010461590728 0.0068040294751 0.0043387060514 0.0027123562534 0.0016622536513 0.00099859081768
          0.00058802493868 0.00033938872899 0.00019197510329 0.00010638524539 5.767395685e-05 3.0402164365e-05
          1.5175262984e-05 6.2699565218e-06 0 1 0.89574712289 0.79084509025
          0.68777715284 0.58885442681 0.49607611867 0.41102344437 0.3347961395 0.26799455185
          0.21074446202 0.16275692956 0.12341227718 0.091856091381 0.067095737675 0.048087957271
          0.033811045364 0.023318288892 0.015772233297 0.010461590738 0.0068040294824 0.004338706057
          0.0027123562575 0.0016622536543 0.00099859081977 0.0005880249401 0.00033938872994 0.00019197510389
          0.00010638524577 5.7673957089e-05 3.0402164524e-05 1.5175263072e-05 6.2699566163e-06 0
          1 0.89574712284 0.7908450902 0.6877771527 0.58885442666 0.49607611849
          0.41102344419 0.33479613931 0.26799455166 0.21074446184 0.16275692939 0.12341227702
          0.091856091231 0.067095737541 0.048087957153 0.033811045262 0.023318288807 0.015772233227
          0.010461590681 0.0068040294373 0.004338706022 0.002712356231 0.0016622536346 0.00099859080545
          0.00058802492989 0.00033938872282 0.00019197509904 0.00010638524253 5.7673955005e-05 3.0402163199e-05
          1.5175262361e-05 6.2699562315e-06 0 1 0.89574712296 0.79084509034
          0.68777715289 0.58885442685 0.49607611869 0.41102344437 0.33479613949 0.26799455182
          0.21074446197 0.16275692949 0.12341227709 0.091856091288 0.067095737578 0.048087957175
          0.033811045272 0.023318288807 0.015772233221 0.010461590672 0.0068040294275 0.0043387060122
          0.0027123562219 0.0016622536267 0.00099859079898 0.0005880249248 0.00033938871896 0.0001919750962
          0.00010638524052 5.767395359e-05 3.0402162282e-05 1.5175261766e-05 6.2699559434e-06 0
          1 0.89574712297 0.79084509039 0.68777715296 0.58885442694 0.49607611879
          0.41102344448 0.33479613958 0.26799455191 0.21074446205 0.16275692956 0.12341227715
          0.091856091331 0.067095737609 0.048087957196 0.033811045285 0.023318288814 0.015772233223
          0.010461590671 0.0068040294247 0.0043387060085 0.002712356218 0.0016622536231 0.00099859079586
          0.00058802492224 0.00033938871695 0.00019197509469 0.00010638523942 5.767395283e-05 3.0402161762e-05
          1.5175261436e-05 6.2699557761e-06 0 1 0.89574712298 0.79084509041
          0.68777715299 0.58885442698 0.49607611884 0.41102344453 0.33479613964 0.26799455196
          0.2107444621 0.1627569296 0.12341227718 0.091856091358 0.06709573763 0.04808795721
          0.033811045295 0.02331828882 0.015772233226 0.010461590672 0.0068040294244 0.0043387060074
          0.0027123562167 0.0016622536217 0.00099859079451 0.00058802492109 0.00033938871602 0.00019197509398
          0.00010638523889 5.7673952452e-05 3.0402161506e-05 1.5175261273e-05 6.2699556959e-06 0
          1 0.89574712299 0.79084509042 0.68777715301 0.58885442701 0.49607611886
          0.41102344456 0.33479613967 0.26799455199 0.21074446212 0.16275692962 0.1234122772
          0.091856091374 0.067095737642 0.04808795722 0.033811045301 0.023318288824 0.015772233229
          0.010461590674 0.006804029425 0.0043387060075 0.0027123562164 0.0016622536212 0.00099859079405
          0.00058802492065 0.00033938871565 0.00019197509368 0.00010638523866 5.7673952288e-05 3.0402161392e-05
          1.5175261201e-05 6.2699556607e-06 0 1 0.89574712299 0.79084509042
          0.68777715302 0.58885442702 0.49607611888 0.41102344458 0.33479613968 0.267994552
          0.21074446214 0.16275692964 0.12341227722 0.091856091383 0.06709573765 0.048087957226
          0.033811045306 0.023318288827 0.015772233231 0.010461590675 0.0068040294257 0.0043387060078
          0.0027123562165 0.0016622536212 0.00099859079396 0.00058802492054 0.00033938871553 0.00019197509358
          0.00010638523858 5.7673952227e-05 3.0402161348e-05 1.5175261173e-05 6.2699556469e-06 0
          1 0.89574712299 0.79084509043 0.68777715302 0.58885442703 0.49607611889
          0.41102344459 0.33479613969 0.26799455201 0.21074446215 0.16275692965 0.12341227722
          0.09185609139 0.067095737655 0.04808795723 0.033811045309 0.02331828883 0.015772233233
          0.010461590676 0.0068040294265 0.0043387060083 0.0027123562168 0.0016622536213 0.00099859079401
          0.00058802492055 0.00033938871552 0.00019197509356 0.00010638523856 5.7673952209e-05 3.0402161335e-05
          1.5175261164e-05 6.2699556423e-06 0 1 0.89574712299 0.79084509043
          0.68777715303 0.58885442703 0.49607611889 0.41102344459 0.3347961397 0.26799455202
          0.21074446216 0.16275692965 0.12341227723 0.091856091395 0.06709573766 0.048087957233
          0.033811045312 0.023318288832 0.015772233234 0.010461590677 0.0068040294272 0.0043387060088
          0.0027123562171 0.0016622536215 0.00099859079412 0.00058802492061 0.00033938871555 0.00019197509357
          0.00010638523857 5.7673952209e-05 3.0402161333e-05 1.5175261162e-05 6.2699556413e-06 0
          1 0.89574712299 0.79084509043 0.68777715303 0.58885442704 0.4960761189
          0.4110234446 0.33479613971 0.26799455203 0.21074446216 0.16275692966 0.12341227723
          0.0918560914 0.067095737664 0.048087957237 0.033811045314 0.023318288834 0.015772233236
          0.010461590678 0.0068040294279 0.0043387060093 0.0027123562174 0.0016622536217 0.00099859079425
          0.00058802492068 0.00033938871559 0.0001919750936 0.00010638523858 5.7673952215e-05 3.0402161336e-05
          1.5175261163e-05 6.2699556417e-06 0 1 0.895747123 0.79084509044
          0.68777715304 0.58885442704 0.49607611891 0.41102344461 0.33479613972 0.26799455203
          0.21074446217 0.16275692967 0.12341227724 0.091856091404 0.067095737668 0.04808795724
          0.033811045317 0.023318288836 0.015772233237 0.010461590679 0.0068040294287 0.0043387060098
          0.0027123562177 0.001662253622 0.00099859079439 0.00058802492077 0.00033938871565 0.00019197509363
          0.0001063852386 5.7673952224e-05 3.0402161341e-05 1.5175261166e-05 6.2699556426e-06 0
          1 0.895747123 0.79084509044 0.68777715304 0.58885442705 0.49607611891
          0.41102344461 0.33479613972 0.26799455204 0.21074446218 0.16275692967 0.12341227725
          0.091856091409 0.067095737672 0.048087957243 0.033811045319 0.023318288838 0.015772233239
          0.01046159068 0.0068040294294 0.0043387060103 0.0027123562181 0.0016622536222 0.00099859079454
          0.00058802492086 0.0003393887157 0.00019197509366 0.00010638523861 5.7673952235e-05 3.0402161346e-05
          1.5175261168e-05 6.2699556438e-06 0 1 0.895747123 0.79084509044
          0.68777715305 0.58885442706 0.49607611892 0.41102344462 0.33479613973 0.26799455205
          0.21074446218 0.16275692968 0.12341227725 0.091856091414 0.067095737675 0.048087957246
          0.033811045322 0.02331828884 0.01577223324 0.010461590681 0.0068040294301 0.0043387060108
          0.0027123562184 0.0016622536224 0.00099859079468 0.00058802492095 0.00033938871576 0.00019197509369
          0.00010638523863 5.7673952245e-05 3.0402161352e-05 1.5175261171e-05 6.269955645e-06 0
          1 0.895747123 0.79084509045 0.68777715305 0.58885442706 0.49607611893
          0.41102344463 0.33479613974 0.26799455206 0.21074446219 0.16275692968 0.12341227726
          0.091856091418 0.067095737679 0.048087957249 0.033811045324 0.023318288841 0.015772233242
          0.010461590682 0.0068040294308 0.0043387060113 0.0027123562188 0.0016622536226 0.00099859079482
          0.00058802492104 0.00033938871581 0.00019197509372 0.00010638523865 5.7673952256e-05 3.0402161358e-05
          1.5175261174e-05 6.2699556462e-06 0 1 0.895747123 0.79084509045
          0.68777715306 0.58885442707 0.49607611893 0.41102344463 0.33479613974 0.26799455206
          0.21074446219 0.16275692969 0.12341227726 0.091856091422 0.067095737683 0.048087957252
          0.033811045326 0.023318288843 0.015772233243 0.010461590683 0.0068040294315 0.0043387060117
          0.0027123562191 0.0016622536228 0.00099859079495 0.00058802492112 0.00033938871586 0.00019197509375
          0.00010638523867 5.7673952265e-05 3.0402161363e-05 1.5175261177e-05 6.2699556473e-06 0
          1 0.895747123 0.79084509045 0.68777715306 0.58885442707 0.49607611894
          0.41102344464 0.33479613975 0.26799455207 0.2107444622 0.16275692969 0.12341227727
          0.091856091426 0.067095737686 0.048087957254 0.033811045328 0.023318288845 0.015772233244
          0.010461590684 0.0068040294321 0.0043387060121 0.0027123562193 0.001662253623 0.00099859079506
          0.00058802492119 0.0003393887159 0.00019197509378 0.00010638523868 5.7673952273e-05 3.0402161367e-05
          1.5175261179e-05 6.2699556481e-06 0 1 0.895747123 0.79084509045
          0.68777715306 0.58885442707 0.49607611894 0.41102344465 0.33479613976 0.26799455207
          0.2107444622 0.1627569297 0.12341227727 0.091856091429 0.067095737688 0.048087957257
          0.03381104533 0.023318288846 0.015772233245 0.010461590685 0.0068040294326 0.0043387060125
          0.0027123562196 0.0016622536232 0.00099859079516 0.00058802492125 0.00033938871593 0.0001919750938
          0.00010638523869 5.7673952278e-05 3.040216137e-05 1.517526118e-05 6.2699556486e-06 0
          1 0.89574712301 0.79084509045 0.68777715307 0.58885442708 0.49607611895
          0.41102344465 0.33479613976 0.26799455208 0.21074446221 0.1627569297 0.12341227727
          0.091856091432 0.067095737691 0.048087957258 0.033811045331 0.023318288847 0.015772233246
          0.010461590685 0.006804029433 0.0043387060128 0.0027123562197 0.0016622536233 0.00099859079522
          0.00058802492129 0.00033938871596 0.00019197509381 0.0001063852387 5.7673952281e-05 3.040216137e-05
          1.517526118e-05 6.2699556486e-06 0 1 0.89574712301 0.79084509046
          0.68777715307 0.58885442708 0.49607611895 0.41102344465 0.33479613976 0.26799455208
          0.21074446221 0.16275692971 0.12341227727 0.091856091434 0.067095737692 0.04808795726
          0.033811045333 0.023318288848 0.015772233246 0.010461590686 0.0068040294333 0.0043387060129
          0.0027123562198 0.0016622536233 0.00099859079526 0.0005880249213 0.00033938871596 0.00019197509381
          0.0001063852387 5.7673952279e-05 3.0402161369e-05 1.5175261179e-05 6.269955648e-06 0
          1 0.89574712301 0.79084509046 0.68777715307 0.58885442708 0.49607611895
          0.41102344466 0.33479613977 0.26799455208 0.21074446221 0.16275692971 0.12341227728
          0.091856091436 0.067095737694 0.048087957261 0.033811045333 0.023318288848 0.015772233247
          0.010461590686 0.0068040294334 0.004338706013 0.0027123562199 0.0016622536233 0.00099859079526
          0.00058802492129 0.00033938871595 0.0001919750938 0.00010638523869 5.7673952273e-05 3.0402161364e-05
          1.5175261176e-05 6.2699556466e-06 0 1 0.89574712301 0.79084509046
          0.68777715307 0.58885442708 0.49607611895 0.41102344466 0.33479613977 0.26799455208
          0.21074446222 0.16275692971 0.12341227728 0.091856091437 0.067095737694 0.048087957261
          0.033811045334 0.023318288848 0.015772233247 0.010461590686 0.0068040294334 0.004338706013
          0.0027123562198 0.0016622536233 0.00099859079521 0.00058802492126 0.00033938871592 0.00019197509378
          0.00010638523867 5.7673952261e-05 3.0402161357e-05 1.5175261172e-05 6.2699556444e-06 0
          1 0.89574712301 0.79084509046 0.68777715307 0.58885442708 0.49607611895
          0.41102344466 0.33479613977 0.26799455208 0.21074446222 0.16275692971 0.12341227728
          0.091856091437 0.067095737695 0.048087957261 0.033811045334 0.023318288848 0.015772233247
          0.010461590686 0.0068040294332 0.0043387060128 0.0027123562197 0.0016622536232 0.00099859079513
          0.00058802492119 0.00033938871587 0.00019197509374 0.00010638523865 5.7673952244e-05 3.0402161345e-05
          1.5175261165e-05 6.2699556413e-06 0 1 0.89574712301 0.79084509046
          0.68777715307 0.58885442709 0.49607611895 0.41102344466 0.33479613977 0.26799455208
          0.21074446222 0.16275692971 0.12341227728 0.091856091436 0.067095737694 0.048087957261
          0.033811045333 0.023318288848 0.015772233246 0.010461590686 0.0068040294329 0.0043387060126
          0.0027123562195 0.001662253623 0.000998590795 0.00058802492109 0.0003393887158 0.00019197509369
          0.00010638523861 5.767395222e-05 3.040216133e-05 1.5175261156e-05 6.2699556371e-06 0
          1 0.89574712301 0.79084509046 0.68777715307 0.58885442708 0.49607611895
          0.41102344466 0.33479613977 0.26799455208 0.21074446222 0.16275692971 0.12341227728
          0.091856091436 0.067095737693 0.04808795726 0.033811045332 0.023318288847 0.015772233246
          0.010461590685 0.0068040294324 0.0043387060122 0.0027123562192 0.0016622536228 0.00099859079482
          0.00058802492096 0.0003393887157 0.00019197509362 0.00010638523857 5.7673952189e-05 3.040216131e-05
          1.5175261144e-05 6.2699556317e-06 0 1 0.89574712301 0.79084509046
          0.68777715307 0.58885442708 0.49607611895 0.41102344466 0.33479613977 0.26799455208
          0.21074446221 0.16275692971 0.12341227728 0.091856091434 0.067095737692 0.048087957259
          0.033811045331 0.023318288846 0.015772233245 0.010461590684 0.0068040294318 0.0043387060117
          0.0027123562188 0.0016622536225 0.00099859079457 0.00058802492078 0.00033938871558 0.00019197509353
          0.0001063852385 5.7673952148e-05 3.0402161285e-05 1.5175261129e-05 6.2699556248e-06 0
          1 0.89574712301 0.79084509046 0.68777715307 0.58885442708 0.49607611895
          0.41102344466 0.33479613977 0.26799455208 0.21074446221 0.16275692971 0.12341227727
          0.091856091433 0.06709573769 0.048087957257 0.03381104533 0.023318288845 0.015772233243
          0.010461590683 0.0068040294309 0.0043387060109 0.0027123562182 0.001662253622 0.00099859079422
          0.00058802492052 0.00033938871539 0.0001919750934 0.00010638523842 5.7673952091e-05 3.0402161249e-05
          1.5175261108e-05 6.2699556151e-06 0 1 0.89574712301 0.79084509046
          0.68777715307 0.58885442709 0.49607611896 0.41102344466 0.33479613977 0.26799455208
          0.21074446221 0.16275692971 0.12341227727 0.091856091431 0.067095737689 0.048087957255
          0.033811045327 0.023318288843 0.015772233242 0.010461590681 0.0068040294294 0.0043387060097
          0.0027123562172 0.0016622536213 0.00099859079367 0.00058802492012 0.00033938871511 0.0001919750932
          0.00010638523828 5.7673952001e-05 3.0402161191e-05 1.5175261075e-05 6.2699555998e-06 0
          1 0.89574712301 0.79084509046 0.68777715307 0.58885442709 0.49607611897
          0.41102344467 0.33479613978 0.26799455209 0.21074446222 0.16275692971 0.12341227728
          0.091856091432 0.067095737687 0.048087957253 0.033811045325 0.02331828884 0.015772233239
          0.010461590679 0.0068040294271 0.0043387060078 0.0027123562157 0.00166225362 0.00099859079273
          0.00058802491943 0.00033938871461 0.00019197509285 0.00010638523804 5.7673951843e-05 3.040216109e-05
          1.5175261016e-05 6.2699555726e-06 0 1 0.895747123 0.79084509046
          0.68777715308 0.58885442711 0.49607611898 0.4110234447 0.3347961398 0.26799455211
          0.21074446224 0.16275692972 0.12341227728 0.091856091436 0.067095737689 0.048087957252
          0.033811045322 0.023318288836 0.015772233235 0.010461590675 0.0068040294234 0.0043387060045
          0.0027123562129 0.0016622536179 0.00099859079107 0.00058802491819 0.00033938871371 0.00019197509223
          0.00010638523761 5.7673951555e-05 3.0402160905e-05 1.5175260906e-05 6.2699555219e-06 0
          1 0.895747123 0.79084509045 0.6877771531 0.58885442712 0.49607611905
          0.41102344473 0.33479613985 0.26799455216 0.21074446228 0.16275692975 0.12341227731
          0.09185609145 0.067095737695 0.048087957253 0.033811045319 0.023318288831 0.015772233228
          0.010461590668 0.0068040294171 0.0043387059989 0.0027123562082 0.0016622536141 0.00099859078811
          0.00058802491596 0.00033938871209 0.00019197509108 0.00010638523682 5.7673951019e-05 3.0402160553e-05
          1.5175260687e-05 6.2699554183e-06 0 1 0.89574712295 0.79084509047
          0.68777715306 0.5888544272 0.49607611905 0.41102344485 0.33479613995 0.26799455225
          0.21074446236 0.16275692982 0.12341227735 0.091856091483 0.067095737715 0.048087957262
          0.03381104532 0.023318288826 0.01577223322 0.010461590658 0.0068040294071 0.0043387059896
          0.0027123562002 0.0016622536074 0.00099859078283 0.00058802491195 0.00033938870914 0.00019197508898
          0.00010638523536 5.7673950028e-05 3.0402159875e-05 1.5175260263e-05 6.2699551436e-06 0
          1 0.89574712305 0.79084509038 0.68777715311 0.5888544272 0.49607611917
          0.41102344493 0.33479614008 0.2679945524 0.21074446252 0.16275692998 0.12341227751
          0.091856091625 0.067095737843 0.048087957374 0.033811045416 0.023318288906 0.015772233285
          0.01046159071 0.0068040294473 0.0043387060203 0.002712356223 0.0016622536241 0.00099859079479
          0.00058802492034 0.00033938871492 0.00019197509289 0.00010638523794 5.7673951621e-05 3.0402160907e-05
          1.5175260776e-05 6.2699554833e-06 0
        </DataArray>
        <DataArray type="Float64" Name="pressure" format="ascii" RangeMin="0" RangeMax="1">
          1 0.96875 0.9375 0.90625 0.875 0.84375
          0.8125 0.78125 0.75 0.71875 0.6875 0.65625
          0.625 0.59375 0.5625 0.53125 0.5 0.46875
          0.4375 0.40625 0.375 0.34375 0.3125 0.28125
          0.25 0.21875 0.1875 0.15625 0.125 0.09375
          0.0625 0.03125 0 1 0.96875 0.9375
          0.90625 0.875 0.84375 0.8125 0.78125 0.75
          0.71875 0.6875 0.65625 0.625 0.59375 0.5625
          0.53125 0.5 0.46875 0.4375 0.40625 0.375
          0.34375 0.3125 0.28125 0.25 0.21875 0.1875
          0.15625 0.125 0.09375 0.0625 0.03125 0
          1 0.96875 0.9375 0.90625 0.875 0.84375
          0.8125 0.78125 0.75 0.71875 0.6875 0.65625
          0.625 0.59375 0.5625 0.53125 0.5 0.46875
          0.4375 0.40625 0.375 0.34375 0.3125 0.28125
          0.25 0.21875 0.1875 0.15625 0.125 0.09375
          0.0625 0.03125 0 1 0.96875 0.9375
          0.90625 0.875 0.84375 0.8125 0.78125 0.75
          0.71875 0.6875 0.65625 0.625 0.59375 0.5625
          0.53125 0.5 0.46875 0.4375 0.40625 0.375
          0.34375 0.3125 0.28125 0.25 0.21875 0.1875
          0.15625 0.125 0.09375 0.0625 0.03125 0
          1 0.96875 0.9375 0.90625 0.875 0.84375
          0.8125 0.78125 0.75 0.71875 0.6875 0.65625
          0.625 0.59375 0.5625 0.53125 0.5 0.46875
          0.4375 0.40625 0.375 0.34375 0.3125 0.28125
          0.25 0.21875 0.1875 0.15625 0.125 0.09375
          0.0625 0.03125 0 1 0.96875 0.9375
          0.90625 0.875 0.84375 0.8125 0.78125 0.75
          0.71875 0.6875 0.65625 0.625 0.59375 0.5625
          0.53125 0.5 0.46875 0.4375 0.40625 0.375
          0.34375 0.3125 0.28125 0.25 0.21875 0.1875
          0.15625 0.125 0.09375 0.0625 0.03125 0
          1 0.96875 0.9375 0.90625 0.875 0.84375
          0.8125 0.78125 0.75 0.71875 0.6875 0.65625
          0.625 0.59375 0.5625 0.53125 0.5 0.46875
          0.4375 0.40625 0.375 0.34375 0.3125 0.28125
          0.25 0.21875 0.1875 0.15625 0.125 0.09375
          0.0625 0.03125 0 1 0.96875 0.9375
          0.90625 0.875 0.84375 0.8125 0.78125 0.75
          0.71875 0.6875 0.65625 0.625 0.59375 0.5625
          0.53125 0.5 0.46875 0.4375 0.40625 0.375
          0.34375 0.3125 0.28125 0.25 0.21875 0.1875
          0.15625 0.125 0.09375 0.0625 0.03125 0
          1 0.96875 0.9375 0.90625 0.875 0.84375
          0.8125 0.78125 0.75 0.71875 0.6875 0.65625
          0.625 0.59375 0.5625 0.53125 0.5 0.46875
          0.4375 0.40625 0.375 0.34375 0.3125 0.28125
          0.25 0.21875 0.1875 0.15625 0.125 0.09375
          0.0625 0.03125 0 1 0.96875 0.9375
          0.90625 0.875 0.84375 0.8125 0.78125 0.75
          0.71875 0.6875 0.65625 0.625 0.59375 0.5625
          0.53125 0.5 0.46875 0.4375 0.40625 0.375
          0.34375 0.3125 0.28125 0.25 0.21875 0.1875
          0.15625 0.125 0.09375 0.0625 0.03125 0
          1 0.96875 0.9375 0.90625 0.875 0.84375
          0.8125 0.78125 0.75 0.71875 0.6875 0.65625
          0.625 0.59375 0.5625 0.53125 0.5 0.46875
          0.4375 0.40625 0.375 0.34375 0.3125 0.28125
          0.25 0.21875 0.1875 0.15625 0.125 0.09375
          0.0625 0.03125 0 1 0.96875 0.9375
          0.90625 0.875 0.84375 0.8125 0.78125 0.75
          0.71875 0.6875 0.65625 0.625 0.59375 0.5625
          0.53125 0.5 0.46875 0.4375 0.40625 0.375
          0.34375 0.3125 0.28125 0.25 0.21875 0.1875
          0.15625 0.125 0.09375 0.0625 0.03125 0
          1 0.96875 0.9375 0.90625 0.875 0.84375
          0.8125 0.78125 0.75 0.71875 0.6875 0.65625
          0.625 0.59375 0.5625 0.53125 0.5 0.46875
          0.4375 0.40625 0.375 0.34375 0.3125 0.28125
          0.25 0.21875 0.1875 0.15625 0.125 0.09375
          0.0625 0.03125 0 1 0.96875 0.9375
          0.90625 0.875 0.84375 0.8125 0.78125 0.75
          0.71875 0.6875 0.65625 0.625 0.59375 0.5625
          0.53125 0.5 0.46875 0.4375 0.40625 0.375
          0.34375 0.3125 0.28125 0.25 0.21875 0.1875
          0.15625 0.125 0.09375 0.0625 0.03125 0
          1 0.96875 0.9375 0.90625 0.875 0.84375
          0.8125 0.78125 0.75 0.71875 0.6875 0.65625
          0.625 0.59375 0.5625 0.53125 0.5 0.46875
          0.4375 0.40625 0.375 0.34375 0.3125 0.28125
          0.25 0.21875 0.1875 0.15625 0.125 0.09375
          0.0625 0.03125 0 1 0.96875 0.9375
          0.90625 0.875 0.84375 0.8125 0.78125 0.75
          0.71875 0.6875 0.65625 0.625 0.59375 0.5625
          0.53125 0.5 0.46875 0.4375 0.40625 0.375
          0.34375 0.3125 0.28125 0.25 0.21875 0.1875
          0.15625 0.125 0.09375 0.0625 0.03125 0
          1 0.96875 0.9375 0.90625 0.875 0.84375
          0.8125 0.78125 0.75 0.71875 0.6875 0.65625
          0.625 0.59375 0.5625 0.53125 0.5 0.46875
          0.4375 0.40625 0.375 0.34375 0.3125 0.28125
          0.25 0.21875 0.1875 0.15625 0.125 0.09375
          0.0625 0.03125 0 1 0.96875 0.9375
          0.90625 0.875 0.84375 0.8125 0.78125 0.75
          0.71875 0.6875 0.65625 0.625 0.59375 0.5625
          0.53125 0.5 0.46875 0.4375 0.40625 0.375
          0.34375 0.3125 0.28125 0.25 0.21875 0.1875
          0.15625 0.125 0.09375 0.0625 0.03125 0
          1 0.96875 0.9375 0.90625 0.875 0.84375
          0.8125 0.78125 0.75 0.71875 0.6875 0.65625
          0.625 0.59375 0.5625 0.53125 0.5 0.46875
          0.4375 0.40625 0.375 0.34375 0.3125 0.28125
          0.25 0.21875 0.1875 0.15625 0.125 0.09375
          0.0625 0.03125 0 1 0.96875 0.9375
          0.90625 0.875 0.84375 0.8125 0.78125 0.75
          0.71875 0.6875 0.65625 0.625 0.59375 0.5625
          0.53125 0.5 0.46875 0.4375 0.40625 0.375
          0.34375 0.3125 0.28125 0.25 0.21875 0.1875
          0.15625 0.125 0.09375 0.0625 0.03125 0
          1 0.96875 0.9375 0.90625 0.875 0.84375
          0.8125 0.78125 0.75 0.71875 0.6875 0.65625
          0.625 0.59375 0.5625 0.53125 0.5 0.46875
          0.4375 0.40625 0.375 0.34375 0.3125 0.28125
          0.25 0.21875 0.1875 0.15625 0.125 0.09375
          0.0625 0.03125 0 1 0.96875 0.9375
          0.90625 0.875 0.84375 0.8125 0.78125 0.75
          0.71875 0.6875 0.65625 0.625 0.59375 0.5625
          0.53125 0.5 0.46875 0.4375 0.40625 0.375
          0.34375 0.3125 0.28125 0.25 0.21875 0.1875
          0.15625 0.125 0.09375 0.0625 0.03125 0
          1 0.96875 0.9375 0.90625 0.875 0.84375
          0.8125 0.78125 0.75 0.71875 0.6875 0.65625
          0.625 0.59375 0.5625 0.53125 0.5 0.46875
          0.4375 0.40625 0.375 0.34375 0.3125 0.28125
          0.25 0.21875 0.1875 0.15625 0.125 0.09375
          0.0625 0.03125 0 1 0.96875 0.9375
          0.90625 0.875 0.84375 0.8125 0.78125 0.75
          0.71875 0.6875 0.65625 0.625 0.59375 0.5625
          0.53125 0.5 0.46875 0.4375 0.40625 0.375
          0.34375 0.3125 0.28125 0.25 0.21875 0.1875
          0.15625 0.125 0.09375 0.0625 0.03125 0
          1 0.96875 0.9375 0.90625 0.875 0.84375
          0.8125 0.78125 0.75 0.71875 0.6875 0.65625
          0.625 0.59375 0.5625 0.53125 0.5 0.46875
          0.4375 0.40625 0.375 0.34375 0.3125 0.28125
          0.25 0.21875 0.1875 0.15625 0.125 0.09375
          0.0625 0.03125 0 1 0.96875 0.9375
          0.90625 0.875 0.84375 0.8125 0.78125 0.75
          0.71875 0.6875 0.65625 0.625 0.59375 0.5625
          0.53125 0.5 0.46875 0.4375 0.40625 0.375
          0.34375 0.3125 0.28125 0.25 0.21875 0.1875
          0.15625 0.125 0.09375 0.0625 0.03125 0
          1 0.96875 0.9375 0.90625 0.875 0.84375
          0.8125 0.78125 0.75 0.71875 0.6875 0.65625
          0.625 0.59375 0.5625 0.53125 0.5 0.46875
          0.4375 0.40625 0.375 0.34375 0.3125 0.28125
          0.25 0.21875 0.1875 0.15625 0.125 0.09375
          0.0625 0.03125 0 1 0.96875 0.9375
          0.90625 0.875 0.84375 0.8125 0.78125 0.75
          0.71875 0.6875 0.65625 0.625 0.59375 0.5625
          0.53125 0.5 0.46875 0.4375 0.40625 0.375
          0.34375 0.3125 0.28125 0.25 0.21875 0.1875
          0.15625 0.125 0.09375 0.0625 0.03125 0
          1 0.96875 0.9375 0.90625 0.875 0.84375
          0.8125 0.78125 0.75 0.71875 0.6875 0.65625
          0.625 0.59375 0.5625 0.53125 0.5 0.46875
          0.4375 0.40625 0.375 0.34375 0.3125 0.28125
          0.25 0.21875 0.1875 0.15625 0.125 0.09375
          0.0625 0.03125 0 1 0.96875 0.9375
          0.90625 0.875 0.84375 0.8125 0.78125 0.75
          0.71875 0.6875 0.65625 0.625 0.59375 0.5625
          0.53125 0.5 0.46875 0.4375 0.40625 0.375
          0.34375 0.3125 0.28125 0.25 0.21875 0.1875
          0.15625 0.125 0.09375 0.0625 0.03125 0
          1 0.96875 0.9375 0.90625 0.875 0.84375
          0.8125 0.78125 0.75 0.71875 0.6875 0.65625
          0.625 0.59375 0.5625 0.53125 0.5 0.46875
          0.4375 0.40625 0.375 0.34375 0.3125 0.28125
          0.25 0.21875 0.1875 0.15625 0.125 0.09375
          0.0625 0.03125 0 1 0.96875 0.9375
          0.90625 0.875 0.84375 0.8125 0.78125 0.75
          0.71875 0.6875 0.65625 0.625 0.59375 0.5625
          0.53125 0.5 0.46875 0.4375 0.40625 0.375
          0.34375 0.3125 0.28125 0.25 0.21875 0.1875
          0.15625 0.125 0.09375 0.0625 0.03125 0
          1 0.96875 0.9375 0.90625 0.875 0.84375
          0.8125 0.78125 0.75 0.71875 0.6875 0.65625
          0.625 0.59375 0.5625 0.53125 0.5 0.46875
          0.4375 0.40625 0.375 0.34375 0.3125 0.28125
          0.25 0.21875 0.1875 0.15625 0.125 0.09375
          0.0625 0.03125 0
        </DataArray>
        <DataArray type="Float64" Name="darcy_velocity" NumberOfComponents="2" format="ascii" RangeMin="0.0001239" RangeMax="0.0001239">
          0.0001239 3.9684553797e-20 0.0001239 -5.4210108624e-19 0.0001239 2.9815559743e-19
          0.0001239 3.3057737382e-19 0.0001239 8.2183901816e-19 0.0001239 -1.0294706199e-18
          0.0001239 1.1373693932e-19 0.0001239 -6.7373424712e-19 0.0001239 5.9526830695e-20
          0.0001239 7.4052385523e-20 0.0001239 -3.5573637279e-19 0.0001239 2.6378776571e-19
          0.0001239 -2.6184171036e-19 0.0001239 -1.3552527156e-19 0.0001239 4.0002534296e-19
          0.0001239 -2.2500637934e-20 0.0001239 8.5886521092e-19 0.0001239 -1.0550113423e-19
          0.0001239 2.2578854527e-19 0.0001239 1.1205160596e-19 0.0001239 5.8249794573e-19
          0.0001239 -3.2234156873e-19 0.0001239 1.3552527156e-19 0.0001239 -1.2511761928e-19
          0.0001239 -1.0744718958e-19 0.0001239 8.8447579361e-20 0.0001239 -7.1394024487e-20
          0.0001239 -1.6577520074e-19 0.0001239 2.4316332287e-20 0.0001239 -4.6217560457e-20
          0.0001239 -4.727962634e-20 0.0001239 1.1579589059e-19 0.0001239 -3.067952708e-19
          0.0001239 3.9684553797e-20 0.0001239 1.969981576e-19 0.0001239 -3.605316509e-20
          0.0001239 6.4591688711e-19 0.0001239 1.0894166121e-20 0.0001239 -4.1720925882e-19
          0.0001239 -1.2028741104e-19 0.0001239 -4.6876100641e-19 0.0001239 2.2500637934e-20
          0.0001239 7.4052385523e-20 0.0001239 -2.2215715657e-19 0.0001239 5.5176150271e-19
          0.0001239 2.2773460062e-19 0.0001239 2.2676157295e-19 0.0001239 -1.7255146432e-19
          0.0001239 1.9842276898e-20 0.0001239 4.1455089779e-19 0.0001239 -8.8803732207e-20
          0.0001239 3.4328723429e-19 0.0001239 5.6998830649e-20 0.0001239 1.8428829712e-19
          0.0001239 -2.1622355967e-19 0.0001239 7.4052385523e-20 0.0001239 1.3304498695e-19
          0.0001239 -1.5984160385e-19 0.0001239 -1.2709860474e-20 0.0001239 -1.1289427264e-19
          0.0001239 -9.6683384446e-20 0.0001239 1.4017740337e-19 0.0001239 -3.4723984572e-20
          0.0001239 -9.4470214468e-20 0.0001239 9.1148861338e-20 0.0001239 -3.0166855401e-19
          0.0001239 9.0277966143e-36 0.0001239 -2.7442120985e-19 0.0001239 1.9070840786e-19
          0.0001239 5.1473530995e-19 0.0001239 2.5120826622e-19 0.0001239 -5.4210108624e-20
          0.0001239 1.4810477105e-19 0.0001239 1.9239374122e-19 0.0001239 6.6789608109e-20
          0.0001239 -1.9965651863e-19 0.0001239 -5.3289225349e-19 0.0001239 2.2844690631e-19
          0.0001239 3.5340859397e-20 0.0001239 -1.1107857828e-19 0.0001239 1.0381580087e-19
          0.0001239 2.7105054312e-20 0.0001239 1.0381580087e-19 0.0001239 3.5236570606e-19