<?xml version="1.0"?>
<VTKFile type="UnstructuredGrid" version="0.1" byte_order="LittleEndian" header_type="UInt32">
  <UnstructuredGrid>
    <Piece NumberOfPoints="1089" NumberOfCells="1024">
      <PointData>
        <DataArray type="Float64" Name="concentration" format="ascii" RangeMin="-0.045912083228" RangeMax="1">
          1 -0.045912083226 -0.020059237328 0.0090641823796 -0.0025477363284 0.00057438739916
          -0.00010541578173 1.3442626088e-05 2.3548329812e-07 -9.535492761e-07 4.4189756668e-07 -1.5269722429e-07
          4.5924214278e-08 -1.2615377726e-08 3.224297605e-09 -7.7019459433e-10 1.7077388974e-10 -3.4322370315e-11
          5.8516072167e-12 -6.5093494398e-13 -6.432977283e-14 7.659886876e-14 -3.4623719822e-14 1.2460352642e-14
          -4.0130831659e-15 1.2055737288e-15 -3.4433254146e-16 9.4434205927e-17 -2.4995989374e-17 6.3977957146e-18
          -1.5782824773e-18 3.5590269926e-19 0 1 -0.045912083227 -0.020059237328
          0.0090641823818 -0.0025477363297 0.00057438739985 -0.00010541578203 1.34426262e-05 2.3548326192e-07
          -9.5354926574e-07 4.4189756409e-07 -1.5269722375e-07 4.5924214205e-08 -1.2615377731e-08 3.2242976145e-09
          -7.7019459919e-10 1.7077389167e-10 -3.4322370984e-11 5.8516074309e-12 -6.5093500831e-13 -6.4329754527e-14
          7.6598863808e-14 -3.462371855e-14 1.2460352333e-14 -4.0130830968e-15 1.205573715e-15 -3.4433253929e-16
          9.4434205813e-17 -2.4995989479e-17 6.3977957805e-18 -1.578282505e-18 3.5590270851e-19 0
          1 -0.045912083227 -0.020059237329 0.0090641823842 -0.002547736331 0.00057438740038
          -0.00010541578222 1.344262626e-05 2.3548324513e-07 -9.5354926162e-07 4.4189756326e-07 -1.5269722364e-07
          4.5924214217e-08 -1.2615377748e-08 3.2242976227e-09 -7.701946024e-10 1.7077389278e-10 -3.4322371339e-11
          5.8516075369e-12 -6.5093503833e-13 -6.4329746447e-14 7.6598861744e-14 -3.4623718052e-14 1.2460352223e-14
          -4.0130830749e-15 1.2055737116e-15 -3.4433253915e-16 9.4434205997e-17 -2.499598959e-17 6.397795827e-18
          -1.5782825217e-18 3.5590271365e-19 0 1 -0.045912083226 -0.020059237329
          0.0090641823847 -0.0025477363313 0.00057438740048 -0.00010541578225 1.3442626268e-05 2.3548324323e-07
          -9.5354926126e-07 4.4189756322e-07 -1.5269722365e-07 4.5924214225e-08 -1.2615377751e-08 3.2242976241e-09
          -7.701946029e-10 1.7077389294e-10 -3.4322371388e-11 5.8516075509e-12 -6.509350421e-13 -6.4329745496e-14
          7.659886152e-14 -3.4623718004e-14 1.2460352214e-14 -4.0130830736e-15 1.2055737116e-15 -3.4433253925e-16
          9.443420605e-17 -2.4995989612e-17 6.3977958346e-18 -1.5782825242e-18 3.5590271438e-19 0
          1 -0.045912083227 -0.020059237329 0.0090641823847 -0.0025477363313 0.00057438740049
          -0.00010541578225 1.3442626269e-05 2.3548324307e-07 -9.5354926123e-07 4.4189756322e-07 -1.5269722365e-07
          4.5924214225e-08 -1.2615377752e-08 3.2242976241e-09 -7.7019460292e-10 1.7077389295e-10 -3.4322371391e-11
          5.8516075523e-12 -6.5093504255e-13 -6.4329745361e-14 7.6598861485e-14 -3.4623717996e-14 1.2460352212e-14
          -4.0130830734e-15 1.2055737116e-15 -3.4433253926e-16 9.4434206053e-17 -2.4995989613e-17 6.3977958351e-18
          -1.5782825244e-18 3.5590271443e-19 0 1 -0.045912083228 -0.020059237329
          0.0090641823848 -0.0025477363313 0.0005743874005 -0.00010541578226 1.3442626269e-05 2.3548324307e-07
          -9.5354926126e-07 4.4189756323e-07 -1.5269722366e-07 4.5924214226e-08 -1.2615377752e-08 3.2242976242e-09
          -7.7019460291e-10 1.7077389294e-10 -3.432237139e-11 5.8516075521e-12 -6.5093504257e-13 -6.4329745344e-14
          7.6598861479e-14 -3.4623717995e-14 1.2460352212e-14 -4.0130830735e-15 1.2055737116e-15 -3.4433253927e-16
          9.4434206058e-17 -2.4995989614e-17 6.3977958352e-18 -1.5782825244e-18 3.5590271443e-19 0
          1 -0.045912083228 -0.020059237329 0.0090641823848 -0.0025477363313 0.0005743874005
          -0.00010541578226 1.3442626269e-05 2.3548324309e-07 -9.5354926129e-07 4.4189756324e-07 -1.5269722366e-07
          4.5924214227e-08 -1.2615377752e-08 3.2242976242e-09 -7.701946029e-10 1.7077389294e-10 -3.4322371388e-11
          5.8516075516e-12 -6.5093504249e-13 -6.4329745348e-14 7.6598861477e-14 -3.4623717994e-14 1.2460352212e-14
          -4.0130830735e-15 1.2055737117e-15 -3.4433253928e-16 9.443420606e-17 -2.4995989614e-17 6.3977958352e-18
          -1.5782825243e-18 3.5590271441e-19 0 1 -0.045912083227 -0.020059237329
          0.0090641823848 -0.0025477363313 0.0005743874005 -0.00010541578226 1.3442626269e-05 2.3548324316e-07
          -9.5354926132e-07 4.4189756326e-07 -1.5269722366e-07 4.5924214229e-08 -1.2615377752e-08 3.2242976242e-09
          -7.7019460288e-10 1.7077389293e-10 -3.4322371386e-11 5.8516075509e-12 -6.5093504234e-13 -6.4329745371e-14
          7.6598861478e-14 -3.4623717994e-14 1.2460352212e-14 -4.0130830736e-15 1.2055737117e-15 -3.4433253929e-16
          9.4434206062e-17 -2.4995989615e-17 6.3977958351e-18 -1.5782825243e-18 3.559027144e-19 0
          1 -0.045912083225 -0.02005923733 0.0090641823848 -0.0025477363313 0.00057438740049
          -0.00010541578225 1.3442626268e-05 2.354832433e-07 -9.5354926136e-07 4.4189756327e-07 -1.5269722367e-07
          4.592421423e-08 -1.2615377752e-08 3.2242976242e-09 -7.7019460286e-10 1.7077389292e-10 -3.4322371382e-11
          5.85160755e-12 -6.5093504214e-13 -6.4329745408e-14 7.6598861483e-14 -3.4623717994e-14 1.2460352212e-14
          -4.0130830736e-15 1.2055737117e-15 -3.4433253929e-16 9.4434206063e-17 -2.4995989615e-17 6.397795835e-18
          -1.5782825242e-18 3.5590271438e-19 0 1 -0.045912083223 -0.02005923733
          0.0090641823849 -0.0025477363313 0.00057438740049 -0.00010541578225 1.3442626268e-05 2.3548324351e-07
          -9.5354926141e-07 4.4189756328e-07 -1.5269722367e-07 4.592421423e-08 -1.2615377752e-08 3.2242976242e-09
          -7.7019460284e-10 1.7077389291e-10 -3.4322371379e-11 5.851607549e-12 -6.509350419e-13 -6.4329745456e-14
          7.6598861491e-14 -3.4623717995e-14 1.2460352212e-14 -4.0130830735e-15 1.2055737117e-15 -3.4433253929e-16
          9.4434206062e-17 -2.4995989614e-17 6.3977958348e-18 -1.5782825241e-18 3.5590271435e-19 0
          1 -0.045912083221 -0.020059237331 0.0090641823849 -0.0025477363313 0.00057438740048
          -0.00010541578225 1.3442626266e-05 2.3548324375e-07 -9.5354926147e-07 4.4189756329e-07 -1.5269722367e-07
          4.5924214231e-08 -1.2615377752e-08 3.2242976241e-09 -7.7019460282e-10 1.707738929e-10 -3.4322371375e-11
          5.851607548e-12 -6.5093504164e-13 -6.4329745511e-14 7.65988615e-14 -3.4623717996e-14 1.2460352212e-14
          -4.0130830735e-15 1.2055737117e-15 -3.4433253929e-16 9.443420606e-17 -2.4995989613e-17 6.3977958345e-18
          -1.5782825241e-18 3.5590271433e-19 0 1 -0.045912083219 -0.020059237331
          0.009064182385 -0.0025477363313 0.00057438740046 -0.00010541578224 1.3442626265e-05 2.3548324402e-07
          -9.5354926153e-07 4.4189756331e-07 -1.5269722368e-07 4.5924214231e-08 -1.2615377752e-08 3.2242976241e-09
          -7.7019460279e-10 1.7077389289e-10 -3.4322371372e-11 5.851607547e-12 -6.5093504138e-13 -6.432974557e-14
          7.6598861511e-14 -3.4623717998e-14 1.2460352212e-14 -4.0130830735e-15 1.2055737117e-15 -3.4433253928e-16
          9.4434206057e-17 -2.4995989613e-17 6.3977958342e-18 -1.578282524e-18 3.559027143e-19 0
          1 -0.045912083217 -0.020059237332 0.0090641823851 -0.0025477363313 0.00057438740045
          -0.00010541578224 1.3442626264e-05 2.3548324429e-07 -9.5354926159e-07 4.4189756332e-07 -1.5269722368e-07
          4.5924214231e-08 -1.2615377752e-08 3.224297624e-09 -7.7019460277e-10 1.7077389288e-10 -3.4322371369e-11
          5.851607546e-12 -6.5093504112e-13 -6.4329745629e-14 7.6598861523e-14 -3.4623718e-14 1.2460352212e-14
          -4.0130830734e-15 1.2055737116e-15 -3.4433253927e-16 9.4434206055e-17 -2.4995989612e-17 6.3977958339e-18
          -1.5782825239e-18 3.5590271427e-19 0 1 -0.045912083215 -0.020059237333
          0.0090641823851 -0.0025477363313 0.00057438740044 -0.00010541578224 1.3442626263e-05 2.3548324457e-07
          -9.5354926165e-07 4.4189756333e-07 -1.5269722368e-07 4.5924214232e-08 -1.2615377752e-08 3.224297624e-09
          -7.7019460275e-10 1.7077389287e-10 -3.4322371366e-11 5.8516075451e-12 -6.5093504088e-13 -6.4329745687e-14
          7.6598861535e-14 -3.4623718002e-14 1.2460352212e-14 -4.0130830734e-15 1.2055737116e-15 -3.4433253926e-16
          9.4434206052e-17 -2.4995989611e-17 6.3977958336e-18 -1.5782825238e-18 3.5590271425e-19 0
          1 -0.045912083213 -0.020059237333 0.0090641823852 -0.0025477363312 0.00057438740044
          -0.00010541578223 1.3442626262e-05 2.3548324476e-07 -9.5354926172e-07 4.4189756334e-07 -1.5269722368e-07
          4.5924214232e-08 -1.2615377752e-08 3.2242976239e-09 -7.7019460273e-10 1.7077389286e-10 -3.4322371363e-11
          5.8516075443e-12 -6.5093504065e-13 -6.4329745743e-14 7.6598861547e-14 -3.4623718004e-14 1.2460352213e-14
          -4.0130830734e-15 1.2055737116e-15 -3.4433253925e-16 9.4434206049e-17 -2.499598961e-17 6.3977958333e-18
          -1.5782825237e-18 3.5590271422e-19 0 1 -0.045912083212 -0.020059237333
          0.0090641823853 -0.0025477363312 0.00057438740043 -0.00010541578223 1.3442626261e-05 2.3548324497e-07
          -9.5354926176e-07 4.4189756335e-07 -1.5269722369e-07 4.5924214232e-08 -1.2615377752e-08 3.2242976239e-09
          -7.7019460271e-10 1.7077389286e-10 -3.4322371361e-11 5.8516075436e-12 -6.5093504045e-13 -6.4329745794e-14
          7.6598861559e-14 -3.4623718006e-14 1.2460352213e-14 -4.0130830734e-15 1.2055737116e-15 -3.4433253925e-16
          9.4434206046e-17 -2.4995989609e-17 6.3977958331e-18 -1.5782825236e-18 3.559027142e-19 0
          1 -0.04591208321 -0.020059237334 0.0090641823853 -0.0025477363312 0.00057438740043
          -0.00010541578223 1.3442626261e-05 2.354832452e-07 -9.5354926179e-07 4.4189756337e-07 -1.5269722369e-07
          4.5924214232e-08 -1.2615377752e-08 3.2242976239e-09 -7.701946027e-10 1.7077389285e-10 -3.4322371359e-11
          5.8516075429e-12 -6.5093504027e-13 -6.4329745841e-14 7.659886157e-14 -3.4623718008e-14 1.2460352213e-14
          -4.0130830735e-15 1.2055737116e-15 -3.4433253924e-16 9.4434206044e-17 -2.4995989608e-17 6.3977958328e-18
          -1.5782825235e-18 3.5590271418e-19 0 1 -0.045912083209 -0.020059237334
          0.0090641823854 -0.0025477363312 0.00057438740042 -0.00010541578223 1.344262626e-05 2.3548324539e-07
          -9.5354926183e-07 4.4189756337e-07 -1.5269722369e-07 4.5924214233e-08 -1.2615377752e-08 3.2242976239e-09
          -7.7019460269e-10 1.7077389285e-10 -3.4322371357e-11 5.8516075424e-12 -6.5093504012e-13 -6.4329745882e-14
          7.659886158e-14 -3.4623718011e-14 1.2460352214e-14 -4.0130830735e-15 1.2055737116e-15 -3.4433253924e-16
          9.4434206042e-17 -2.4995989607e-17 6.3977958326e-18 -1.5782825235e-18 3.5590271416e-19 0
          1 -0.045912083208 -0.020059237334 0.0090641823854 -0.0025477363312 0.00057438740042
          -0.00010541578222 1.3442626259e-05 2.3548324554e-07 -9.5354926187e-07 4.4189756337e-07 -1.5269722369e-07
          4.5924214233e-08 -1.2615377752e-08 3.2242976239e-09 -7.7019460268e-10 1.7077389284e-10 -3.4322371356e-11
          5.851607542e-12 -6.5093503999e-13 -6.4329745917e-14 7.6598861589e-14 -3.4623718013e-14 1.2460352214e-14
          -4.0130830736e-15 1.2055737116e-15 -3.4433253923e-16 9.443420604e-17 -2.4995989607e-17 6.3977958324e-18
          -1.5782825234e-18 3.5590271414e-19 0 1 -0.045912083208 -0.020059237334
          0.0090641823854 -0.0025477363312 0.00057438740041 -0.00010541578222 1.3442626259e-05 2.3548324567e-07
          -9.535492619e-07 4.4189756338e-07 -1.5269722369e-07 4.5924214233e-08 -1.2615377752e-08 3.2242976239e-09
          -7.7019460268e-10 1.7077389284e-10 -3.4322371355e-11 5.8516075417e-12 -6.5093503989e-13 -6.4329745947e-14
          7.6598861597e-14 -3.4623718015e-14 1.2460352215e-14 -4.0130830737e-15 1.2055737116e-15 -3.4433253923e-16
          9.4434206039e-17 -2.4995989606e-17 6.3977958322e-18 -1.5782825233e-18 3.5590271413e-19 0
          1 -0.045912083207 -0.020059237335 0.0090641823855 -0.0025477363312 0.00057438740041
          -0.00010541578222 1.3442626259e-05 2.3548324576e-07 -9.5354926192e-07 4.4189756338e-07 -1.5269722369e-07
          4.5924214233e-08 -1.2615377752e-08 3.2242976239e-09 -7.7019460268e-10 1.7077389284e-10 -3.4322371355e-11
          5.8516075415e-12 -6.5093503982e-13 -6.4329745969e-14 7.6598861603e-14 -3.4623718016e-14 1.2460352215e-14
          -4.0130830737e-15 1.2055737116e-15 -3.4433253923e-16 9.4434206039e-17 -2.4995989606e-17 6.3977958321e-18
          -1.5782825233e-18 3.5590271412e-19 0 1 -0.045912083206 -0.020059237335
          0.0090641823855 -0.0025477363312 0.00057438740041 -0.00010541578222 1.3442626258e-05 2.3548324583e-07
          -9.5354926193e-07 4.4189756339e-07 -1.5269722369e-07 4.5924214233e-08 -1.2615377752e-08 3.2242976239e-09
          -7.7019460268e-10 1.7077389284e-10 -3.4322371355e-11 5.8516075415e-12 -6.5093503978e-13 -6.4329745984e-14
          7.6598861608e-14 -3.4623718017e-14 1.2460352215e-14 -4.0130830738e-15 1.2055737116e-15 -3.4433253924e-16
          9.4434206039e-17 -2.4995989606e-17 6.397795832e-18 -1.5782825233e-18 3.5590271411e-19 0
          1 -0.045912083206 -0.020059237335 0.0090641823855 -0.0025477363312 0.00057438740041
          -0.00010541578222 1.3442626258e-05 2.3548324588e-07 -9.5354926194e-07 4.4189756339e-07 -1.5269722369e-07
          4.5924214233e-08 -1.2615377752e-08 3.2242976239e-09 -7.7019460268e-10 1.7077389284e-10 -3.4322371355e-11
          5.8516075415e-12 -6.5093503977e-13 -6.4329745993e-14 7.6598861612e-14 -3.4623718019e-14 1.2460352216e-14
          -4.0130830739e-15 1.2055737116e-15 -3.4433253924e-16 9.4434206039e-17 -2.4995989606e-17 6.397795832e-18
          -1.5782825233e-18 3.559027141e-19 0 1 -0.045912083206 -0.020059237335
          0.0090641823855 -0.0025477363312 0.00057438740041 -0.00010541578222 1.3442626258e-05 2.3548324589e-07
          -9.5354926195e-07 4.4189756339e-07 -1.5269722369e-07 4.5924214232e-08 -1.2615377752e-08 3.2242976238e-09
          -7.7019460268e-10 1.7077389284e-10 -3.4322371355e-11 5.8516075416e-12 -6.509350398e-13 -6.4329745989e-14
          7.6598861612e-14 -3.4623718019e-14 1.2460352216e-14 -4.0130830739e-15 1.2055737116e-15 -3.4433253924e-16
          9.443420604e-17 -2.4995989606e-17 6.397795832e-18 -1.5782825233e-18 3.559027141e-19 0
          1 -0.045912083206 -0.020059237335 0.0090641823855 -0.0025477363312 0.0005743874004
          -0.00010541578222 1.3442626258e-05 2.3548324593e-07 -9.5354926195e-07 4.4189756339e-07 -1.5269722369e-07
          4.5924214232e-08 -1.2615377752e-08 3.2242976238e-09 -7.7019460268e-10 1.7077389284e-10 -3.4322371355e-11
          5.8516075416e-12 -6.5093503978e-13 -6.4329745999e-14 7.6598861616e-14 -3.462371802e-14 1.2460352216e-14
          -4.013083074e-15 1.2055737117e-15 -3.4433253925e-16 9.4434206041e-17 -2.4995989606e-17 6.397795832e-18
          -1.5782825233e-18 3.559027141e-19 0 1 -0.045912083206 -0.020059237335
          0.0090641823855 -0.0025477363312 0.00057438740041 -0.00010541578222 1.3442626258e-05 2.3548324581e-07
          -9.5354926191e-07 4.4189756338e-07 -1.5269722369e-07 4.5924214232e-08 -1.2615377752e-08 3.2242976238e-09
          -7.7019460268e-10 1.7077389285e-10 -3.4322371357e-11 5.8516075423e-12 -6.5093504004e-13 -6.4329745927e-14
          7.6598861597e-14 -3.4623718015e-14 1.2460352215e-14 -4.0130830738e-15 1.2055737116e-15 -3.4433253924e-16
          9.443420604e-17 -2.4995989606e-17 6.3977958322e-18 -1.5782825233e-18 3.5590271413e-19 0
          1 -0.045912083206 -0.020059237335 0.0090641823855 -0.0025477363312 0.0005743874004
          -0.00010541578222 1.3442626257e-05 2.354832462e-07 -9.5354926204e-07 4.4189756341e-07 -1.526972237e-07
          4.5924214233e-08 -1.2615377752e-08 3.2242976238e-09 -7.7019460265e-10 1.7077389283e-10 -3.4322371351e-11
          5.8516075401e-12 -6.5093503934e-13 -6.4329746132e-14 7.6598861656e-14 -3.4623718032e-14 1.2460352219e-14
          -4.0130830748e-15 1.2055737118e-15 -3.4433253928e-16 9.4434206047e-17 -2.4995989607e-17 6.3977958319e-18
          -1.5782825231e-18 3.5590271405e-19 0 1 -0.045912083206 -0.020059237335
          0.0090641823855 -0.0025477363312 0.00057438740042 -0.00010541578223 1.3442626261e-05 2.3548324471e-07
          -9.5354926157e-07 4.4189756328e-07 -1.5269722366e-07 4.5924214227e-08 -1.2615377752e-08 3.2242976239e-09
          -7.7019460278e-10 1.7077389289e-10 -3.4322371375e-11 5.8516075485e-12 -6.5093504196e-13 -6.4329745349e-14
          7.6598861435e-14 -3.4623717973e-14 1.2460352204e-14 -4.0130830712e-15 1.2055737111e-15 -3.4433253913e-16
          9.4434206025e-17 -2.4995989606e-17 6.3977958334e-18 -1.578282524e-18 3.5590271436e-19 0
          1 -0.045912083206 -0.020059237335 0.0090641823854 -0.0025477363312 0.00057438740037
          -0.0001054157822 1.3442626248e-05 2.3548324955e-07 -9.5354926312e-07 4.4189756371e-07 -1.5269722377e-07
          4.5924214248e-08 -1.2615377754e-08 3.2242976235e-09 -7.7019460235e-10 1.7077389269e-10 -3.4322371295e-11
          5.8516075211e-12 -6.5093503333e-13 -6.4329747919e-14 7.6598862158e-14 -3.4623718167e-14 1.2460352254e-14
          -4.013083083e-15 1.2055737137e-15 -3.4433253964e-16 9.44342061e-17 -2.4995989608e-17 6.3977958285e-18
          -1.5782825212e-18 3.5590271333e-19 0 1 -0.045912083207 -0.020059237335
          0.0090641823855 -0.0025477363313 0.00057438740051 -0.00010541578229 1.344262629e-05 2.3548323418e-07
          -9.535492582e-07 4.4189756234e-07 -1.5269722344e-07 4.5924214182e-08 -1.2615377746e-08 3.2242976247e-09
          -7.7019460371e-10 1.7077389335e-10 -3.4322371549e-11 5.8516076079e-12 -6.5093506073e-13 -6.4329739787e-14
          7.659885987e-14 -3.4623717554e-14 1.2460352098e-14 -4.0130830459e-15 1.2055737055e-15 -3.4433253807e-16
          9.4434205873e-17 -2.4995989606e-17 6.3977958447e-18 -1.5782825301e-18 3.5590271662e-19 0
          1 -0.045912083207 -0.020059237335 0.0090641823854 -0.0025477363311 0.00057438740017
          -0.00010541578205 1.3442626177e-05 2.3548327669e-07 -9.5354927188e-07 4.4189756619e-07 -1.5269722437e-07
          4.5924214369e-08 -1.2615377769e-08 3.2242976216e-09 -7.7019459999e-10 1.7077389153e-10 -3.4322370847e-11
          5.8516073674e-12 -6.5093498469e-13 -6.4329762385e-14 7.6598866237e-14 -3.4623719259e-14 1.2460352531e-14
          -4.0130831494e-15 1.2055737283e-15 -3.4433254247e-16 9.443420651e-17 -2.4995989614e-17 6.3977958e-18
          -1.5782825055e-18 3.5590270751e-19 0 1 -0.045912083207 -0.020059237334
          0.0090641823845 -0.0025477363309 0.00057438740068 -0.00010541578249 1.3442626401e-05 2.3548318956e-07
          -9.5354924324e-07 4.4189755798e-07 -1.5269722233e-07 4.5924213946e-08 -1.261537771e-08 3.224297625e-09
          -7.7019460689e-10 1.707738951e-10 -3.4322372258e-11 5.8516078573e-12 -6.5093514099e-13 -6.4329715595e-14
          7.6598852972e-14 -3.4623715685e-14 1.2460351617e-14 -4.0130829294e-15 1.2055736793e-15 -3.4433253282e-16
          9.4434205041e-17 -2.4995989557e-17 6.3977958818e-18 -1.5782825538e-18 3.5590272571e-19 0
          1 -0.045912083208 -0.020059237336 0.0090641823946 -0.0025477363364 0.0005743874026
          -0.00010541578302 1.3442626515e-05 2.3548317261e-07 -9.5354924362e-07 4.4189755956e-07 -1.5269722315e-07
          4.5924214261e-08 -1.2615377815e-08 3.2242976569e-09 -7.7019461591e-10 1.7077389748e-10 -3.432237285e-11
          5.851607993e-12 -6.5093516893e-13 -6.4329710867e-14 7.659885254e-14 -3.4623715808e-14 1.2460351716e-14
          -4.0130829728e-15 1.2055736953e-15 -3.4433253812e-16 9.4434206695e-17 -2.4995990049e-17 6.3977960229e-18
          -1.5782825929e-18 3.5590273575e-19 0
        </DataArray>
        <DataArray type="Float64" Name="pressure" format="ascii" RangeMin="0" RangeMax="1">
          1 0.96875 0.9375 0.90625 0.875 0.84375
          0.8125 0.78125 0.75 0.71875 0.6875 0.65625
          0.625 0.59375 0.5625 0.53125 0.5 0.46875
          0.4375 0.40625 0.375 0.34375 0.3125 0.28125
          0.25 0.21875 0.1875 0.15625 0.125 0.09375
          0.0625 0.03125 0 1 0.96875 0.9375
          0.90625 0.875 0.84375 0.8125 0.78125 0.75
          0.71875 0.6875 0.65625 0.625 0.59375 0.5625
          0.53125 0.5 0.46875 0.4375 0.40625 0.375
          0.34375 0.3125 0.28125 0.25 0.21875 0.1875
          0.15625 0.125 0.09375 0.0625 0.03125 0
          1 0.96875 0.9375 0.90625 0.875 0.84375
          0.8125 0.78125 0.75 0.71875 0.6875 0.65625
          0.625 0.59375 0.5625 0.53125 0.5 0.46875
          0.4375 0.40625 0.375 0.34375 0.3125 0.28125
          0.25 0.21875 0.1875 0.15625 0.125 0.09375
          0.0625 0.03125 0 1 0.96875 0.9375
          0.90625 0.875 0.84375 0.8125 0.78125 0.75
          0.71875 0.6875 0.65625 0.625 0.59375 0.5625
          0.53125 0.5 0.46875 0.4375 0.40625 0.375
          0.34375 0.3125 0.28125 0.25 0.21875 0.1875
          0.15625 0.125 0.09375 0.0625 0.03125 0
          1 0.96875 0.9375 0.90625 0.875 0.84375
          0.8125 0.78125 0.75 0.71875 0.6875 0.65625
          0.625 0.59375 0.5625 0.53125 0.5 0.46875
          0.4375 0.40625 0.375 0.34375 0.3125 0.28125
          0.25 0.21875 0.1875 0.15625 0.125 0.09375
          0.0625 0.03125 0 1 0.96875 0.9375
          0.90625 0.875 0.84375 0.8125 0.78125 0.75
          0.71875 0.6875 0.65625 0.625 0.59375 0.5625
          0.53125 0.5 0.46875 0.4375 0.40625 0.375
          0.34375 0.3125 0.28125 0.25 0.21875 0.1875
          0.15625 0.125 0.09375 0.0625 0.03125 0
          1 0.96875 0.9375 0.90625 0.875 0.84375
          0.8125 0.78125 0.75 0.71875 0.6875 0.65625
          0.625 0.59375 0.5625 0.53125 0.5 0.46875
          0.4375 0.40625 0.375 0.34375 0.3125 0.28125
          0.25 0.21875 0.1875 0.15625 0.125 0.09375
          0.0625 0.03125 0 1 0.96875 0.9375
          0.90625 0.875 0.84375 0.8125 0.78125 0.75
          0.71875 0.6875 0.65625 0.625 0.59375 0.5625
          0.53125 0.5 0.46875 0.4375 0.40625 0.375
          0.34375 0.3125 0.28125 0.25 0.21875 0.1875
          0.15625 0.125 0.09375 0.0625 0.03125 0
          1 0.96875 0.9375 0.90625 0.875 0.84375
          0.8125 0.78125 0.75 0.71875 0.6875 0.65625
          0.625 0.59375 0.5625 0.53125 0.5 0.46875
          0.4375 0.40625 0.375 0.34375 0.3125 0.28125
          0.25 0.21875 0.1875 0.15625 0.125 0.09375
          0.0625 0.03125 0 1 0.96875 0.9375
          0.90625 0.875 0.84375 0.8125 0.78125 0.75
          0.71875 0.6875 0.65625 0.625 0.59375 0.5625
          0.53125 0.5 0.46875 0.4375 0.40625 0.375
          0.34375 0.3125 0.28125 0.25 0.21875 0.1875
          0.15625 0.125 0.09375 0.0625 0.03125 0
          1 0.96875 0.9375 0.90625 0.875 0.84375
          0.8125 0.78125 0.75 0.71875 0.6875 0.65625
          0.625 0.59375 0.5625 0.53125 0.5 0.46875
          0.4375 0.40625 0.375 0.34375 0.3125 0.28125
          0.25 0.21875 0.1875 0.15625 0.125 0.09375
          0.0625 0.03125 0 1 0.96875 0.9375
          0.90625 0.875 0.84375 0.8125 0.78125 0.75
          0.71875 0.6875 0.65625 0.625 0.59375 0.5625
          0.53125 0.5 0.46875 0.4375 0.40625 0.375
          0.34375 0.3125 0.28125 0.25 0.21875 0.1875
          0.15625 0.125 0.09375 0.0625 0.03125 0
          1 0.96875 0.9375 0.90625 0.875 0.84375
          0.8125 0.78125 0.75 0.71875 0.6875 0.65625
          0.625 0.59375 0.5625 0.53125 0.5 0.46875
          0.4375 0.40625 0.375 0.34375 0.3125 0.28125
          0.25 0.21875 0.1875 0.15625 0.125 0.09375
          0.0625 0.03125 0 1 0.96875 0.9375
          0.90625 0.875 0.84375 0.8125 0.78125 0.75
          0.71875 0.6875 0.65625 0.625 0.59375 0.5625
          0.53125 0.5 0.46875 0.4375 0.40625 0.375
          0.34375 0.3125 0.28125 0.25 0.21875 0.1875
          0.15625 0.125 0.09375 0.0625 0.03125 0
          1 0.96875 0.9375 0.90625 0.875 0.84375
          0.8125 0.78125 0.75 0.71875 0.6875 0.65625
          0.625 0.59375 0.5625 0.53125 0.5 0.46875
          0.4375 0.40625 0.375 0.34375 0.3125 0.28125
          0.25 0.21875 0.1875 0.15625 0.125 0.09375
          0.0625 0.03125 0 1 0.96875 0.9375
          0.90625 0.875 0.84375 0.8125 0.78125 0.75
          0.71875 0.6875 0.65625 0.625 0.59375 0.5625
          0.53125 0.5 0.46875 0.4375 0.40625 0.375
          0.34375 0.3125 0.28125 0.25 0.21875 0.1875
          0.15625 0.125 0.09375 0.0625 0.03125 0
          1 0.96875 0.9375 0.90625 0.875 0.84375
          0.8125 0.78125 0.75 0.71875 0.6875 0.65625
          0.625 0.59375 0.5625 0.53125 0.5 0.46875
          0.4375 0.40625 0.375 0.34375 0.3125 0.28125
          0.25 0.21875 0.1875 0.15625 0.125 0.09375
          0.0625 0.03125 0 1 0.96875 0.9375
          0.90625 0.875 0.84375 0.8125 0.78125 0.75
          0.71875 0.6875 0.65625 0.625 0.59375 0.5625
          0.53125 0.5 0.46875 0.4375 0.40625 0.375
          0.34375 0.3125 0.28125 0.25 0.21875 0.1875
          0.15625 0.125 0.09375 0.0625 0.03125 0
          1 0.96875 0.9375 0.90625 0.875 0.84375
          0.8125 0.78125 0.75 0.71875 0.6875 0.65625
          0.625 0.59375 0.5625 0.53125 0.5 0.46875
          0.4375 0.40625 0.375 0.34375 0.3125 0.28125
          0.25 0.21875 0.1875 0.15625 0.125 0.09375
          0.0625 0.03125 0 1 0.96875 0.9375
          0.90625 0.875 0.84375 0.8125 0.78125 0.75
          0.71875 0.6875 0.65625 0.625 0.59375 0.5625
          0.53125 0.5 0.46875 0.4375 0.40625 0.375
          0.34375 0.3125 0.28125 0.25 0.21875 0.1875
          0.15625 0.125 0.09375 0.0625 0.03125 0
          1 0.96875 0.9375 0.90625 0.875 0.84375
          0.8125 0.78125 0.75 0.71875 0.6875 0.65625
          0.625 0.59375 0.5625 0.53125 0.5 0.46875
          0.4375 0.40625 0.375 0.34375 0.3125 0.28125
          0.25 0.21875 0.1875 0.15625 0.125 0.09375
          0.0625 0.03125 0 1 0.96875 0.9375
          0.90625 0.875 0.84375 0.8125 0.78125 0.75
          0.71875 0.6875 0.65625 0.625 0.59375 0.5625
          0.53125 0.5 0.46875 0.4375 0.40625 0.375
          0.34375 0.3125 0.28125 0.25 0.21875 0.1875
          0.15625 0.125 0.09375 0.0625 0.03125 0
          1 0.96875 0.9375 0.90625 0.875 0.84375
          0.8125 0.78125 0.75 0.71875 0.6875 0.65625
          0.625 0.59375 0.5625 0.53125 0.5 0.46875
          0.4375 0.40625 0.375 0.34375 0.3125 0.28125
          0.25 0.21875 0.1875 0.15625 0.125 0.09375
          0.0625 0.03125 0 1 0.96875 0.9375
          0.90625 0.875 0.84375 0.8125 0.78125 0.75
          0.71875 0.6875 0.65625 0.625 0.59375 0.5625
          0.53125 0.5 0.46875 0.4375 0.40625 0.375
          0.34375 0.3125 0.28125 0.25 0.21875 0.1875
          0.15625 0.125 0.09375 0.0625 0.03125 0
          1 0.96875 0.9375 0.90625 0.875 0.84375
          0.8125 0.78125 0.75 0.71875 0.6875 0.65625
          0.625 0.59375 0.5625 0.53125 0.5 0.46875
          0.4375 0.40625 0.375 0.34375 0.3125 0.28125
          0.25 0.21875 0.1875 0.15625 0.125 0.09375
          0.0625 0.03125 0 1 0.96875 0.9375
          0.90625 0.875 0.84375 0.8125 0.78125 0.75
          0.71875 0.6875 0.65625 0.625 0.59375 0.5625
          0.53125 0.5 0.46875 0.4375 0.40625 0.375
          0.34375 0.3125 0.28125 0.25 0.21875 0.1875
          0.15625 0.125 0.09375 0.0625 0.03125 0
          1 0.96875 0.9375 0.90625 0.875 0.84375
          0.8125 0.78125 0.75 0.71875 0.6875 0.65625
          0.625 0.59375 0.5625 0.53125 0.5 0.46875
          0.4375 0.40625 0.375 0.34375 0.3125 0.28125
          0.25 0.21875 0.1875 0.15625 0.125 0.09375
          0.0625 0.03125 0 1 0.96875 0.9375
          0.90625 0.875 0.84375 0.8125 0.78125 0.75
          0.71875 0.6875 0.65625 0.625 0.59375 0.5625
          0.53125 0.5 0.46875 0.4375 0.40625 0.375
          0.34375 0.3125 0.28125 0.25 0.21875 0.1875
          0.15625 0.125 0.09375 0.0625 0.03125 0
          1 0.96875 0.9375 0.90625 0.875 0.84375
          0.8125 0.78125 0.75 0.71875 0.6875 0.65625
          0.625 0.59375 0.5625 0.53125 0.5 0.46875
          0.4375 0.40625 0.375 0.34375 0.3125 0.28125
          0.25 0.21875 0.1875 0.15625 0.125 0.09375
          0.0625 0.03125 0 1 0.96875 0.9375
          0.90625 0.875 0.84375 0.8125 0.78125 0.75
          0.71875 0.6875 0.65625 0.625 0.59375 0.5625
          0.53125 0.5 0.46875 0.4375 0.40625 0.375
          0.34375 0.3125 0.28125 0.25 0.21875 0.1875
          0.15625 0.125 0.09375 0.0625 0.03125 0
          1 0.96875 0.9375 0.90625 0.875 0.84375
          0.8125 0.78125 0.75 0.71875 0.6875 0.65625
          0.625 0.59375 0.5625 0.53125 0.5 0.46875
          0.4375 0.40625 0.375 0.34375 0.3125 0.28125
          0.25 0.21875 0.1875 0.15625 0.125 0.09375
          0.0625 0.03125 0 1 0.96875 0.9375
          0.90625 0.875 0.84375 0.8125 0.78125 0.75
          0.71875 0.6875 0.65625 0.625 0.59375 0.5625
          0.53125 0.5 0.46875 0.4375 0.40625 0.375
          0.34375 0.3125 0.28125 0.25 0.21875 0.1875
          0.15625 0.125 0.09375 0.0625 0.03125 0
          1 0.96875 0.9375 0.90625 0.875 0.84375
          0.8125 0.78125 0.75 0.71875 0.6875 0.65625
          0.625 0.59375 0.5625 0.53125 0.5 0.46875
          0.4375 0.40625 0.375 0.34375 0.3125 0.28125
          0.25 0.21875 0.1875 0.15625 0.125 0.09375
          0.0625 0.03125 0
        </DataArray>
        <DataArray type="Float64" Name="darcy_velocity" NumberOfComponents="2" format="ascii" RangeMin="0.0001239" RangeMax="0.0001239">
          0.0001239 3.9684553797e-20 0.0001239 -3.9684553797e-20 0.0001239 -1.8778932484e-19
          0.0001239 1.771558807e-19 0.0001239 3.6494520554e-19 0.0001239 7.2262763367e-19
          0.0001239 -4.8594492228e-19 0.0001239 5.3167220709e-21 0.0001239 5.9526830695e-20
          0.0001239 -5.3820897556e-19 0.0001239 5.9773580625e-19 0.0001239 -2.3473665605e-19
          0.0001239 -1.2826249415e-19 0.0001239 4.8893386553e-20 0.0001239 -1.6989310329e-19
          0.0001239 -7.4052385523e-20 0.0001239 6.3670805436e-19 0.0001239 2.7007751545e-19