<?xml version="1.0"?>
<VTKFile type="UnstructuredGrid" version="0.1" byte_order="LittleEndian" header_type="UInt32">
  <UnstructuredGrid>
    <Piece NumberOfPoints="1089" NumberOfCells="1024">
      <PointData>
        <DataArray type="Float64" Name="concentration" format="ascii" RangeMin="-1.6329408558e-06" RangeMax="1">
          1 0.72394343965 0.47570622614 0.28072556062 0.14716430865 0.067698898095
          0.026914950328 0.0090539703264 0.002492580332 0.00052768530881 7.3285298894e-05 2.1767728687e-06
          -1.6329350261e-06 -3.1678035789e-07 9.2518913698e-09 1.0821638905e-08 5.1855044101e-10 -3.2992248625e-10
          -2.7894249382e-11 1.1042534958e-11 9.0711273771e-13 -4.1539599317e-13 -1.6423499469e-14 1.6137423971e-14
          -4.9370663034e-16 -5.6580821906e-16 7.178290313e-17 1.4102385322e-17 -4.4102977009e-18 8.9394437853e-21
          1.7178890918e-19 -2.6756161241e-20 0 1 0.72394343968 0.47570622611
          0.28072556064 0.14716430863 0.067698898077 0.026914950326 0.0090539703246 0.0024925803307
          0.00052768530631 7.3285295808e-05 2.176770241e-06 -1.6329366783e-06 -3.1678114404e-07 9.2516115376e-09
          1.0821569162e-08 5.1854097285e-10 -3.2992193857e-10 -2.7893743308e-11 1.1042593531e-11 9.0709856595e-13
          -4.1539985321e-13 -1.6423143003e-14 1.6137606751e-14 -4.937190122e-16 -5.6581622849e-16 7.1783635435e-17
          1.4102711424e-17 -4.4103491271e-18 8.9285805141e-21 1.7179218556e-19 -2.6756021927e-20 0
          1 0.72394343968 0.47570622614 0.28072556066 0.14716430865 0.067698898078
          0.026914950325 0.0090539703218 0.0024925803284 0.00052768530464 7.3285294646e-05 2.1767694848e-06
          -1.6329371072e-06 -3.1678134349e-07 9.2515394535e-09 1.0821550418e-08 5.1853815462e-10 -3.2992187569e-10
          -2.7893611979e-11 1.1042612755e-11 9.0709548142e-13 -4.1540098409e-13 -1.6423089452e-14 1.6137658295e-14
          -4.9372024567e-16 -5.6581849171e-16 7.1783733557e-17 1.4102807994e-17 -4.4103586878e-18 8.9249373639e-21
          1.7179290834e-19 -2.6755926809e-20 0 1 0.72394343968 0.47570622614
          0.28072556066 0.14716430865 0.067698898083 0.026914950328 0.0090539703231 0.0024925803287
          0.00052768530468 7.3285294618e-05 2.1767694632e-06 -1.6329371176e-06 -3.1678134777e-07 9.2515378277e-09
          1.0821549902e-08 5.1853803866e-10 -3.2992188701e-10 -2.7893609474e-11 1.1042613754e-11 9.070955224e-13
          -4.1540102389e-13 -1.6423094812e-14 1.6137659747e-14 -4.9371995099e-16 -5.6581855247e-16 7.1783720503e-17
          1.410281105e-17 -4.4103582139e-18 8.9247703884e-21 1.7179289798e-19 -2.6755918093e-20 0
          1 0.72394343969 0.47570622616 0.28072556068 0.14716430867 0.067698898094
          0.026914950334 0.009053970326 0.0024925803299 0.00052768530501 7.3285294692e-05 2.1767694722e-06
          -1.6329371182e-06 -3.1678134838e-07 9.2515376981e-09 1.0821549896e-08 5.185380427e-10 -3.2992188585e-10
          -2.7893609397e-11 1.1042613714e-11 9.0709551178e-13 -4.1540102315e-13 -1.6423094162e-14 1.6137659743e-14
          -4.9371998599e-16 -5.6581855219e-16 7.1783722338e-17 1.410281095e-17 -4.4103583018e-18 8.9247826593e-21
          1.7179290121e-19 -2.6755919082e-20 0 1 0.7239434397 0.47570622619
          0.28072556071 0.14716430869 0.06769889811 0.026914950343 0.0090539703301 0.0024925803314
          0.00052768530549 7.3285294799e-05 2.1767694871e-06 -1.6329371181e-06 -3.1678134883e-07 9.2515376172e-09
          1.0821549896e-08 5.185380436e-10 -3.2992188611e-10 -2.7893609447e-11 1.1042613734e-11 9.070955156e-13
          -4.1540102421e-13 -1.6423094366e-14 1.6137659798e-14 -4.9371997779e-16 -5.6581855509e-16 7.1783722122e-17
          1.4102811097e-17 -4.410358304e-18 8.9247762113e-21 1.7179290196e-19 -2.6755918877e-20 0
          1 0.72394343972 0.47570622622 0.28072556074 0.14716430872 0.06769889813
          0.026914950355 0.0090539703356 0.0024925803335 0.00052768530613 7.3285294944e-05 2.1767695075e-06
          -1.6329371178e-06 -3.1678134936e-07 9.2515375444e-09 1.0821549909e-08 5.1853804776e-10 -3.2992188628e-10
          -2.7893609612e-11 1.1042613737e-11 9.0709552213e-13 -4.1540102431e-13 -1.6423094612e-14 1.6137659811e-14
          -4.9371996944e-16 -5.6581855613e-16 7.1783721911e-17 1.4102811155e-17 -4.4103583032e-18 8.9247740335e-21
          1.7179290226e-19 -2.6755918847e-20 0 1 0.72394343974 0.47570622626
          0.28072556079 0.14716430876 0.067698898156 0.026914950369 0.0090539703426 0.0024925803362
          0.00052768530695 7.3285295128e-05 2.176769533e-06 -1.6329371177e-06 -3.1678135013e-07 9.2515374264e-09
          1.0821549921e-08 5.1853805306e-10 -3.2992188635e-10 -2.7893609793e-11 1.104261374e-11 9.0709552943e-13
          -4.154010246e-13 -1.6423094903e-14 1.6137659836e-14 -4.9371995923e-16 -5.6581855787e-16 7.1783721658e-17
          1.410281125e-17 -4.410358304e-18 8.9247703105e-21 1.7179290281e-19 -2.6755918779e-20 0
          1 0.72394343977 0.47570622631 0.28072556084 0.1471643088 0.067698898188
          0.026914950387 0.0090539703511 0.0024925803395 0.00052768530793 7.3285295348e-05 2.176769563e-06
          -1.6329371178e-06 -3.1678135114e-07 9.2515372688e-09 1.0821549936e-08 5.1853806004e-10 -3.2992188629e-10
          -2.789361001e-11 1.104261374e-11 9.0709553799e-13 -4.1540102485e-13 -1.642309525e-14 1.6137659863e-14
          -4.9371994669e-16 -5.6581855989e-16 7.1783721327e-17 1.4102811363e-17 -4.4103583033e-18 8.9247656982e-21
          1.7179290339e-19 -2.6755918682e-20 0 1 0.72394343981 0.47570622636
          0.2807255609 0.14716430886 0.067698898224 0.026914950408 0.0090539703608 0.0024925803432
          0.00052768530906 7.3285295601e-05 2.1767695967e-06 -1.6329371183e-06 -3.1678135241e-07 9.2515370713e-09
          1.0821549952e-08 5.1853806868e-10 -3.299218861e-10 -2.7893610258e-11 1.1042613736e-11 9.0709554749e-13
          -4.1540102505e-13 -1.6423095635e-14 1.6137659892e-14 -4.9371993266e-16 -5.6581856219e-16 7.1783720953e-17
          1.4102811495e-17 -4.4103583025e-18 8.9247602571e-21 1.7179290406e-19 -2.6755918562e-20 0
          1 0.72394343985 0.47570622643 0.28072556097 0.14716430891 0.067698898264
          0.026914950431 0.0090539703715 0.0024925803473 0.0005276853103 7.3285295878e-05 2.1767696331e-06
          -1.6329371191e-06 -3.1678135388e-07 9.251536842e-09 1.0821549971e-08 5.1853807866e-10 -3.2992188582e-10
          -2.789361054e-11 1.1042613728e-11 9.0709555794e-13 -4.1540102515e-13 -1.6423096053e-14 1.6137659921e-14
          -4.9371991756e-16 -5.6581856465e-16 7.1783720553e-17 1.410281164e-17 -4.4103583021e-18 8.9247541709e-21
          1.7179290483e-19 -2.6755918423e-20 0 1 0.72394343988 0.47570622649
          0.28072556104 0.14716430898 0.067698898306 0.026914950455 0.0090539703828 0.0024925803516
          0.00052768531162 7.328529617e-05 2.1767696711e-06 -1.6329371202e-06 -3.1678135549e-07 9.2515365932e-09
          1.082154999e-08 5.1853808937e-10 -3.2992188555e-10 -2.7893610853e-11 1.1042613718e-11 9.0709556939e-13
          -4.1540102515e-13 -1.6423096503e-14 1.6137659946e-14 -4.9371990169e-16 -5.6581856714e-16 7.1783720139e-17
          1.4102811791e-17 -4.4103583021e-18 8.9247477226e-21 1.7179290568e-19 -2.6755918276e-20 0
          1 0.72394343992 0.47570622656 0.28072556112 0.14716430904 0.067698898349
          0.026914950479 0.0090539703944 0.0024925803561 0.00052768531296 7.3285296468e-05 2.1767697098e-06
          -1.6329371213e-06 -3.1678135713e-07 9.2515363392e-09 1.082155001e-08 5.1853810001e-10 -3.2992188537e-10
          -2.7893611194e-11 1.1042613708e-11 9.0709558181e-13 -4.1540102508e-13 -1.6423096985e-14 1.6137659968e-14
          -4.937198852e-16 -5.6581856955e-16 7.1783719714e-17 1.4102811943e-17 -4.4103583024e-18 8.9247412231e-21
          1.7179290658e-19 -2.675591813e-20 0 1 0.72394343996 0.47570622662
          0.28072556119 0.1471643091 0.067698898391 0.026914950504 0.0090539704058 0.0024925803605
          0.00052768531428 7.3285296761e-05 2.176769748e-06 -1.6329371223e-06 -3.1678135872e-07 9.2515360937e-09
          1.0821550029e-08 5.1853810988e-10 -3.2992188539e-10 -2.7893611552e-11 1.1042613699e-11 9.0709559496e-13
          -4.1540102499e-13 -1.6423097494e-14 1.6137659985e-14 -4.9371986831e-16 -5.6581857183e-16 7.1783719273e-17
          1.4102812089e-17 -4.4103583022e-18 8.9247349636e-21 1.7179290747e-19 -2.6755917995e-20 0
          1 0.72394344 0.47570622669 0.28072556126 0.14716430916 0.067698898432
          0.026914950527 0.0090539704166 0.0024925803646 0.00052768531554 7.328529704e-05 2.1767697848e-06
          -1.6329371231e-06 -3.1678136018e-07 9.2515358671e-09 1.0821550046e-08 5.1853811849e-10 -3.299218856e-10
          -2.7893611913e-11 1.1042613694e-11 9.0709560832e-13 -4.1540102492e-13 -1.6423098012e-14 1.6137659999e-14
          -4.9371985164e-16 -5.65818574e-16 7.1783718817e-17 1.4102812226e-17 -4.4103583008e-18 8.9247291581e-21
          1.7179290827e-19 -2.6755917874e-20 0 1 0.72394344004 0.47570622674
          0.28072556132 0.14716430921 0.067698898468 0.026914950547 0.0090539704264 0.0024925803684
          0.00052768531669 7.3285297297e-05 2.1767698188e-06 -1.6329371237e-06 -3.1678136147e-07 9.2515356668e-09
          1.0821550061e-08 5.1853812568e-10 -3.2992188597e-10 -2.7893612261e-11 1.104261369e-11 9.0709562116e-13
          -4.1540102489e-13 -1.6423098514e-14 1.613766001e-14 -4.9371983612e-16 -5.658185761e-16 7.1783718354e-17
          1.4102812351e-17 -4.4103582976e-18 8.924723923e-21 1.7179290894e-19 -2.6755917768e-20 0
          1 0.72394344007 0.47570622679 0.28072556137 0.14716430926 0.0676988985
          0.026914950566 0.0090539704351 0.0024925803717 0.00052768531769 7.3285297521e-05 2.1767698491e-06
          -1.632937124e-06 -3.1678136256e-07 9.2515354973e-09 1.0821550074e-08 5.1853813154e-10 -3.2992188641e-10
          -2.7893612577e-11 1.1042613689e-11 9.0709563275e-13 -4.1540102489e-13 -1.6423098972e-14 1.6137660018e-14
          -4.937198228e-16 -5.6581857815e-16 7.1783717899e-17 1.4102812463e-17 -4.4103582928e-18 8.9247193185e-21
          1.7179290945e-19 -2.6755917671e-20 0 1 0.72394344009 0.47570622683
          0.28072556142 0.14716430929 0.067698898527 0.026914950581 0.0090539704422 0.0024925803744
          0.00052768531852 7.3285297708e-05 2.1767698745e-06 -1.6329371242e-06 -3.1678136343e-07 9.2515353609e-09
          1.0821550084e-08 5.1853813625e-10 -3.2992188681e-10 -2.7893612842e-11 1.1042613688e-11 9.0709564244e-13
          -4.1540102492e-13 -1.6423099362e-14 1.6137660022e-14 -4.9371981245e-16 -5.6581858016e-16 7.1783717464e-17
          1.4102812557e-17 -4.4103582872e-18 8.9247154316e-21 1.7179290982e-19 -2.6755917578e-20 0
          1 0.72394344011 0.47570622687 0.28072556145 0.14716430932 0.067698898547
          0.026914950592 0.0090539704477 0.0024925803765 0.00052768531916 7.3285297853e-05 2.1767698942e-06
          -1.6329371242e-06 -3.1678136409e-07 9.2515352585e-09 1.0821550093e-08 5.1853813999e-10 -3.2992188709e-10
          -2.7893613042e-11 1.1042613687e-11 9.0709564979e-13 -4.1540102497e-13 -1.6423099668e-14 1.6137660023e-14
          -4.9371980534e-16 -5.6581858204e-16 7.1783717054e-17 1.4102812626e-17 -4.4103582815e-18 8.9247124112e-21
          1.7179291008e-19 -2.6755917491e-20 0 1 0.72394344012 0.47570622689
          0.28072556148 0.14716430934 0.067698898561 0.0269149506 0.0090539704513 0.002492580378
          0.0005276853196 7.3285297951e-05 2.1767699079e-06 -1.6329371242e-06 -3.1678136452e-07 9.2515351899e-09
          1.0821550099e-08 5.1853814281e-10 -3.299218872e-10 -2.7893613167e-11 1.1042613687e-11 9.0709565459e-13
          -4.1540102504e-13 -1.6423099884e-14 1.6137660023e-14 -4.9371980119e-16 -5.658185837e-16 7.178371667e-17
          1.4102812665e-17 -4.4103582764e-18 8.924710374e-21 1.7179291024e-19 -2.6755917416e-20 0
          1 0.72394344013 0.4757062269 0.28072556149 0.14716430935 0.067698898568
          0.026914950604 0.0090539704532 0.0024925803787 0.00052768531982 7.3285298004e-05 2.1767699154e-06
          -1.6329371241e-06 -3.1678136474e-07 9.2515351543e-09 1.0821550103e-08 5.185381447e-10 -3.2992188713e-10
          -2.7893613215e-11 1.1042613687e-11 9.0709565688e-13 -4.1540102512e-13 -1.6423100008e-14 1.6137660021e-14
          -4.9371979937e-16 -5.6581858499e-16 7.1783716325e-17 1.4102812673e-17 -4.4103582722e-18 8.9247092716e-21
          1.7179291029e-19 -2.6755917354e-20 0 1 0.72394344013 0.4757062269
          0.28072556149 0.14716430935 0.067698898568 0.026914950604 0.0090539704534 0.0024925803788
          0.00052768531985 7.328529801e-05 2.1767699168e-06 -1.6329371239e-06 -3.1678136475e-07 9.2515351499e-09
          1.0821550104e-08 5.1853814559e-10 -3.2992188692e-10 -2.7893613192e-11 1.1042613688e-11 9.0709565682e-13
          -4.1540102521e-13 -1.6423100043e-14 1.613766002e-14 -4.9371979909e-16 -5.6581858573e-16 7.1783716048e-17
          1.4102812653e-17 -4.4103582693e-18 8.924708811e-21 1.7179291019e-19 -2.6755917297e-20 0
          1 0.72394344012 0.47570622689 0.28072556148 0.14716430935 0.067698898562
          0.026914950601 0.0090539704519 0.0024925803782 0.00052768531968 7.3285297975e-05 2.1767699126e-06
          -1.6329371237e-06 -3.1678136457e-07 9.2515351738e-09 1.0821550103e-08 5.1853814544e-10 -3.299218866e-10
          -2.7893613107e-11 1.1042613689e-11 9.0709565476e-13 -4.154010253e-13 -1.64231e-14 1.6137660019e-14
          -4.9371979952e-16 -5.6581858567e-16 7.1783715884e-17 1.4102812611e-17 -4.4103582672e-18 8.9247090095e-21
          1.7179290993e-19 -2.6755917241e-20 0 1 0.72394344011 0.47570622687
          0.28072556146 0.14716430933 0.067698898551 0.026914950595 0.0090539704489 0.0024925803771
          0.00052768531935 7.3285297902e-05 2.1767699034e-06 -1.6329371235e-06 -3.1678136422e-07 9.2515352226e-09
          1.0821550098e-08 5.1853814427e-10 -3.2992188619e-10 -2.789361296e-11 1.1042613692e-11 9.0709565053e-13
          -4.154010255e-13 -1.6423099874e-14 1.6137660028e-14 -4.9371980026e-16 -5.6581858529e-16 7.1783715879e-17
          1.4102812591e-17 -4.4103582661e-18 8.9247083362e-21 1.7179290973e-19 -2.6755917128e-20 0
          1 0.7239434401 0.47570622685 0.28072556143 0.14716430931 0.067698898535
          0.026914950586 0.0090539704448 0.0024925803755 0.00052768531888 7.3285297799e-05 2.17676989e-06
          -1.6329371232e-06 -3.1678136372e-07 9.2515352995e-09 1.0821550095e-08 5.1853814286e-10 -3.2992188581e-10
          -2.7893612843e-11 1.1042613684e-11 9.07095647e-13 -4.1540102463e-13 -1.642309969e-14 1.613765998e-14
          -4.9371980389e-16 -5.6581858095e-16 7.1783716214e-17 1.4102812411e-17 -4.410358264e-18 8.924717314e-21
          1.7179290893e-19 -2.6755917429e-20 0 1 0.72394344008 0.47570622682
          0.2807255614 0.14716430928 0.067698898517 0.026914950576 0.0090539704399 0.0024925803736
          0.00052768531832 7.3285297677e-05 2.1767698746e-06 -1.6329371227e-06 -3.1678136313e-07 9.2515353442e-09
          1.0821550065e-08 5.1853813388e-10 -3.2992188583e-10 -2.7893612345e-11 1.1042613782e-11 9.0709564004e-13
          -4.1540103024e-13 -1.6423099996e-14 1.6137660247e-14 -4.9371976529e-16 -5.6581859166e-16 7.1783714575e-17
          1.4102813106e-17 -4.4103581836e-18 8.9246800837e-21 1.7179290787e-19 -2.675591547e-20 0
          1 0.72394344006 0.47570622679 0.28072556137 0.14716430925 0.067698898497
          0.026914950564 0.0090539704345 0.0024925803716 0.00052768531768 7.3285297524e-05 2.1767698476e-06
          -1.6329371261e-06 -3.1678136339e-07 9.2515354147e-09 1.0821550149e-08 5.1853817202e-10 -3.2992187836e-10
          -2.7893612911e-11 1.1042613199e-11 9.0709557978e-13 -4.15401005e-13 -1.6423094499e-14 1.6137659265e-14
          -4.9372007491e-16 -5.6581854315e-16 7.1783730209e-17 1.4102810392e-17 -4.4103587931e-18 8.9248569672e-21
          1.7179292398e-19 -2.675592588e-20 0 1 0.72394344004 0.47570622675
          0.28072556133 0.14716430922 0.067698898476 0.026914950552 0.0090539704291 0.0024925803696
          0.00052768531722 7.3285297517e-05 2.1767699085e-06 -1.6329370898e-06 -3.167813509e-07 9.2515378449e-09
          1.0821550106e-08 5.1853797574e-10 -3.2992193501e-10 -2.7893615259e-11 1.1042615895e-11 9.0709612765e-13
          -4.1540108051e-13 -1.6423129223e-14 1.6137661072e-14 -4.9371827315e-16 -5.6581861511e-16 7.1783643034e-17
          1.410281691e-17 -4.4103548393e-18 8.9242811013e-21 1.7179277947e-19 -2.675588326e-20 0
          1 0.72394344002 0.47570622672 0.2807255613 0.14716430919 0.06769889846
          0.026914950543 0.0090539704239 0.0024925803669 0.0005276853156 7.3285296523e-05 2.1767693476e-06
          -1.6329373538e-06 -3.1678144769e-07 9.2515127908e-09 1.0821546834e-08 5.1853844821e-10 -3.2992161653e-10
          -2.7893568739e-11 1.1042607907e-11 9.0709265305e-13 -4.1540106239e-13 -1.6422958174e-14 1.6137668853e-14
          -4.9372630051e-16 -5.658190126e-16 7.1784033856e-17 1.4102821822e-17 -4.4103736605e-18 8.9253602927e-21
          1.7179358049e-19 -2.6756020034e-20 0 1 0.72394344001 0.4757062267
          0.28072556127 0.14716430917 0.067698898431 0.026914950527 0.0090539704198 0.0024925803692
          0.00052768532031 7.328530085e-05 2.1767721936e-06 -1.632935909e-06 -3.1678088008e-07 9.2516778608e-09
          1.0821577413e-08 5.1853957879e-10 -3.2992280734e-10 -2.7893872249e-11 1.1042612116e-11 9.0710729418e-13
          -4.15399779e-13 -1.6423542381e-14 1.6137582982e-14 -4.9370114403e-16 -5.6581504931e-16 7.1782788241e-17
          1.4102686752e-17 -4.4103083068e-18 8.9269364142e-21 1.717904018e-19 -2.6755755593e-20 0
          1 0.72394344 0.47570622668 0.28072556125 0.14716430914 0.067698898457
          0.026914950538 0.0090539704149 0.0024925803541 0.0005276853024 7.3285285926e-05 2.176762563e-06
          -1.6329408558e-06 -3.1678289139e-07 9.2510523084e-09 1.0821442097e-08 5.185256803e-10 -3.2992061079e-10
          -2.7892857389e-11 1.1042682243e-11 9.070727404e-13 -4.1540611365e-13 -1.6422462004e-14 1.6137907047e-14
          -4.937429733e-16 -5.6582937484e-16 7.178498474e-17 1.4103242178e-17 -4.4104394777e-18 8.9113195953e-21
          1.717977319e-19 -2.6755819008e-20 0 1 0.72394343998 0.47570622667
          0.28072556122 0.14716430914 0.067698898421 0.026914950545 0.0090539704296 0.0024925803713
          0.00052768531526 7.3285293303e-05 2.1767658481e-06 -1.6329397396e-06 -3.1678262738e-07 9.2510813859e-09
          1.082143576e-08 5.1852218154e-10 -3.2992114782e-10 -2.7892798619e-11 1.1042715938e-11 9.0707421813e-13
          -4.1540749302e-13 -1.6422620394e-14 1.6137962415e-14 -4.9373467936e-16 -5.6583187992e-16 7.1784653784e-17
          1.4103368287e-17 -4.4104308897e-18 8.9049356687e-21 1.7179785421e-19 -2.6755531685e-20 0
          1 0.72394344005 0.47570622669 0.28072556124 0.14716430912 0.067698898385
          0.02691495051 0.0090539704068 0.0024925803594 0.00052768531073 7.3285292142e-05 2.1767657785e-06
          -1.63293964e-06 -3.1678257052e-07 9.2510983548e-09 1.0821438581e-08 5.1852224311e-10 -3.2992123673e-10
          -2.7892816333e-11 1.1042716512e-11 9.0707495736e-13 -4.1540742987e-13 -1.6422644571e-14 1.6137957713e-14
          -4.9373384892e-16 -5.6583162381e-16 7.1784615186e-17 1.4103355859e-17 -4.4104284616e-18 8.9054333473e-21
          1.7179767621e-19 -2.6755536711e-20 0
        </DataArray>
        <DataArray type="Float64" Name="pressure" format="ascii" RangeMin="0" RangeMax="1">
          1 0.96875 0.9375 0.90625 0.875 0.84375
          0.8125 0.78125 0.75 0.71875 0.6875 0.65625
          0.625 0.59375 0.5625 0.53125 0.5 0.46875
          0.4375 0.40625 0.375 0.34375 0.3125 0.28125
          0.25 0.21875 0.1875 0.15625 0.125 0.09375
          0.0625 0.03125 0 1 0.96875 0.9375
          0.90625 0.875 0.84375 0.8125 0.78125 0.75
          0.71875 0.6875 0.65625 0.625 0.59375 0.5625
          0.53125 0.5 0.46875 0.4375 0.40625 0.375
          0.34375 0.3125 0.28125 0.25 0.21875 0.1875
          0.15625 0.125 0.09375 0.0625 0.03125 0
          1 0.96875 0.9375 0.90625 0.875 0.84375
          0.8125 0.78125 0.75 0.71875 0.6875 0.65625
          0.625 0.59375 0.5625 0.53125 0.5 0.46875
          0.4375 0.40625 0.375 0.34375 0.3125 0.28125
          0.25 0.21875 0.1875 0.15625 0.125 0.09375
          0.0625 0.03125 0 1 0.96875 0.9375
          0.90625 0.875 0.84375 0.8125 0.78125 0.75
          0.71875 0.6875 0.65625 0.625 0.59375 0.5625
          0.53125 0.5 0.46875 0.4375 0.40625 0.375
          0.34375 0.3125 0.28125 0.25 0.21875 0.1875
          0.15625 0.125 0.09375 0.0625 0.03125 0
          1 0.96875 0.9375 0.90625 0.875 0.84375
          0.8125 0.78125 0.75 0.71875 0.6875 0.65625
          0.625 0.59375 0.5625 0.53125 0.5 0.46875
          0.4375 0.40625 0.375 0.34375 0.3125 0.28125
          0.25 0.21875 0.1875 0.15625 0.125 0.09375
          0.0625 0.03125 0 1 0.96875 0.9375
          0.90625 0.875 0.84375 0.8125 0.78125 0.75
          0.71875 0.6875 0.65625 0.625 0.59375 0.5625
          0.53125 0.5 0.46875 0.4375 0.40625 0.375
          0.34375 0.3125 0.28125 0.25 0.21875 0.1875
          0.15625 0.125 0.09375 0.0625 0.03125 0
          1 0.96875 0.9375 0.90625 0.875 0.84375
          0.8125 0.78125 0.75 0.71875 0.6875 0.65625
          0.625 0.59375 0.5625 0.53125 0.5 0.46875
          0.4375 0.40625 0.375 0.34375 0.3125 0.28125
          0.25 0.21875 0.1875 0.15625 0.125 0.09375
          0.0625 0.03125 0 1 0.96875 0.9375
          0.90625 0.875 0.84375 0.8125 0.78125 0.75
          0.71875 0.6875 0.65625 0.625 0.59375 0.5625
          0.53125 0.5 0.46875 0.4375 0.40625 0.375
          0.34375 0.3125 0.28125 0.25 0.21875 0.1875
          0.15625 0.125 0.09375 0.0625 0.03125 0
          1 0.96875 0.9375 0.90625 0.875 0.84375
          0.8125 0.78125 0.75 0.71875 0.6875 0.65625
          0.625 0.59375 0.5625 0.53125 0.5 0.46875
          0.4375 0.40625 0.375 0.34375 0.3125 0.28125
          0.25 0.21875 0.1875 0.15625 0.125 0.09375
          0.0625 0.03125 0 1 0.96875 0.9375
          0.90625 0.875 0.84375 0.8125 0.78125 0.75
          0.71875 0.6875 0.65625 0.625 0.59375 0.5625
          0.53125 0.5 0.46875 0.4375 0.40625 0.375
          0.34375 0.3125 0.28125 0.25 0.21875 0.1875
          0.15625 0.125 0.09375 0.0625 0.03125 0
          1 0.96875 0.9375 0.90625 0.875 0.84375
          0.8125 0.78125 0.75 0.71875 0.6875 0.65625
          0.625 0.59375 0.5625 0.53125 0.5 0.46875
          0.4375 0.40625 0.375 0.34375 0.3125 0.28125
          0.25 0.21875 0.1875 0.15625 0.125 0.09375
          0.0625 0.03125 0 1 0.96875 0.9375
          0.90625 0.875 0.84375 0.8125 0.78125 0.75
          0.71875 0.6875 0.65625 0.625 0.59375 0.5625
          0.53125 0.5 0.46875 0.4375 0.40625 0.375
          0.34375 0.3125 0.28125 0.25 0.21875 0.1875
          0.15625 0.125 0.09375 0.0625 0.03125 0
          1 0.96875 0.9375 0.90625 0.875 0.84375
          0.8125 0.78125 0.75 0.71875 0.6875 0.65625
          0.625 0.59375 0.5625 0.53125 0.5 0.46875
          0.4375 0.40625 0.375 0.34375 0.3125 0.28125
          0.25 0.21875 0.1875 0.15625 0.125 0.09375
          0.0625 0.03125 0 1 0.96875 0.9375
          0.90625 0.875 0.84375 0.8125 0.78125 0.75
          0.71875 0.6875 0.65625 0.625 0.59375 0.5625
          0.53125 0.5 0.46875 0.4375 0.40625 0.375
          0.34375 0.3125 0.28125 0.25 0.21875 0.1875
          0.15625 0.125 0.09375 0.0625 0.03125 0
          1 0.96875 0.9375 0.90625 0.875 0.84375
          0.8125 0.78125 0.75 0.71875 0.6875 0.65625
          0.625 0.59375 0.5625 0.53125 0.5 0.46875
          0.4375 0.40625 0.375 0.34375 0.3125 0.28125
          0.25 0.21875 0.1875 0.15625 0.125 0.09375
          0.0625 0.03125 0 1 0.96875 0.9375
          0.90625 0.875 0.84375 0.8125 0.78125 0.75
          0.71875 0.6875 0.65625 0.625 0.59375 0.5625
          0.53125 0.5 0.46875 0.4375 0.40625 0.375
          0.34375 0.3125 0.28125 0.25 0.21875 0.1875
          0.15625 0.125 0.09375 0.0625 0.03125 0
          1 0.96875 0.9375 0.90625 0.875 0.84375
          0.8125 0.78125 0.75 0.71875 0.6875 0.65625
          0.625 0.59375 0.5625 0.53125 0.5 0.46875
          0.4375 0.40625 0.375 0.34375 0.3125 0.28125
          0.25 0.21875 0.1875 0.15625 0.125 0.09375
          0.0625 0.03125 0 1 0.96875 0.9375
          0.90625 0.875 0.84375 0.8125 0.78125 0.75
          0.71875 0.6875 0.65625 0.625 0.59375 0.5625
          0.53125 0.5 0.46875 0.4375 0.40625 0.375
          0.34375 0.3125 0.28125 0.25 0.21875 0.1875
          0.15625 0.125 0.09375 0.0625 0.03125 0
          1 0.96875 0.9375 0.90625 0.875 0.84375
          0.8125 0.78125 0.75 0.71875 0.6875 0.65625
          0.625 0.59375 0.5625 0.53125 0.5 0.46875
          0.4375 0.40625 0.375 0.34375 0.3125 0.28125
          0.25 0.21875 0.1875 0.15625 0.125 0.09375
          0.0625 0.03125 0 1 0.96875 0.9375
          0.90625 0.875 0.84375 0.8125 0.78125 0.75
          0.71875 0.6875 0.65625 0.625 0.59375 0.5625
          0.53125 0.5 0.46875 0.4375 0.40625 0.375
          0.34375 0.3125 0.28125 0.25 0.21875 0.1875
          0.15625 0.125 0.09375 0.0625 0.03125 0
          1 0.96875 0.9375 0.90625 0.875 0.84375
          0.8125 0.78125 0.75 0.71875 0.6875 0.65625
          0.625 0.59375 0.5625 0.53125 0.5 0.46875
          0.4375 0.40625 0.375 0.34375 0.3125 0.28125
          0.25 0.21875 0.1875 0.15625 0.125 0.09375
          0.0625 0.03125 0 1 0.96875 0.9375
          0.90625 0.875 0.84375 0.8125 0.78125 0.75
          0.71875 0.6875 0.65625 0.625 0.59375 0.5625
          0.53125 0.5 0.46875 0.4375 0.40625 0.375
          0.34375 0.3125 0.28125 0.25 0.21875 0.1875
          0.15625 0.125 0.09375 0.0625 0.03125 0
          1 0.96875 0.9375 0.90625 0.875 0.84375
          0.8125 0.78125 0.75 0.71875 0.6875 0.65625
          0.625 0.59375 0.5625 0.53125 0.5 0.46875
          0.4375 0.40625 0.375 0.34375 0.3125 0.28125
          0.25 0.21875 0.1875 0.15625 0.125 0.09375
          0.0625 0.03125 0 1 0.96875 0.9375
          0.90625 0.875 0.84375 0.8125 0.78125 0.75
          0.71875 0.6875 0.65625 0.625 0.59375 0.5625
          0.53125 0.5 0.46875 0.4375 0.40625 0.375
          0.34375 0.3125 0.28125 0.25 0.21875 0.1875
          0.15625 0.125 0.09375 0.0625 0.03125 0
          1 0.96875 0.9375 0.90625 0.875 0.84375
          0.8125 0.78125 0.75 0.71875 0.6875 0.65625
          0.625 0.59375 0.5625 0.53125 0.5 0.46875
          0.4375 0.40625 0.375 0.34375 0.3125 0.28125
          0.25 0.21875 0.1875 0.15625 0.125 0.09375
          0.0625 0.03125 0 1 0.96875 0.9375
          0.90625 0.875 0.84375 0.8125 0.78125 0.75
          0.71875 0.6875 0.65625 0.625 0.59375 0.5625
          0.53125 0.5 0.46875 0.4375 0.40625 0.375
          0.34375 0.3125 0.28125 0.25 0.21875 0.1875
          0.15625 0.125 0.09375 0.0625 0.03125 0
          1 0.96875 0.9375 0.90625 0.875 0.84375
          0.8125 0.78125 0.75 0.71875 0.6875 0.65625
          0.625 0.59375 0.5625 0.53125 0.5 0.46875
          0.4375 0.40625 0.375 0.34375 0.3125 0.28125
          0.25 0.21875 0.1875 0.15625 0.125 0.09375
          0.0625 0.03125 0 1 0.96875 0.9375
          0.90625 0.875 0.84375 0.8125 0.78125 0.75
          0.71875 0.6875 0.65625 0.625 0.59375 0.5625
          0.53125 0.5 0.46875 0.4375 0.40625 0.375
          0.34375 0.3125 0.28125 0.25 0.21875 0.1875
          0.15625 0.125 0.09375 0.0625 0.03125 0
          1 0.96875 0.9375 0.90625 0.875 0.84375
          0.8125 0.78125 0.75 0.71875 0.6875 0.65625
          0.625 0.59375 0.5625 0.53125 0.5 0.46875
          0.4375 0.40625 0.375 0.34375 0.3125 0.28125
          0.25 0.21875 0.1875 0.15625 0.125 0.09375
          0.0625 0.03125 0 1 0.96875 0.9375
          0.90625 0.875 0.84375 0.8125 0.78125 0.75
          0.71875 0.6875 0.65625 0.625 0.59375 0.5625
          0.53125 0.5 0.46875 0.4375 0.40625 0.375
          0.34375 0.3125 0.28125 0.25 0.21875 0.1875
          0.15625 0.125 0.09375 0.0625 0.03125 0
          1 0.96875 0.9375 0.90625 0.875 0.84375
          0.8125 0.78125 0.75 0.71875 0.6875 0.65625
          0.625 0.59375 0.5625 0.53125 0.5 0.46875
          0.4375 0.40625 0.375 0.34375 0.3125 0.28125
          0.25 0.21875 0.1875 0.15625 0.125 0.09375
          0.0625 0.03125 0 1 0.96875 0.9375
          0.90625 0.875 0.84375 0.8125 0.78125 0.75
          0.71875 0.6875 0.65625 0.625 0.59375 0.5625
          0.53125 0.5 0.46875 0.4375 0.40625 0.375
          0.34375 0.3125 0.28125 0.25 0.21875 0.1875
          0.15625 0.125 0.09375 0.0625 0.03125 0
          1 0.96875 0.9375 0.90625 0.875 0.84375
          0.8125 0.78125 0.75 0.71875 0.6875 0.65625
          0.625 0.59375 0.5625 0.53125 0.5 0.46875
          0.4375 0.40625 0.375 0.34375 0.3125 0.28125
          0.25 0.21875 0.1875 0.15625 0.125 0.09375
          0.0625 0.03125 0
        </DataArray>
        <DataArray type="Float64" Name="darcy_velocity" NumberOfComponents="2" format="ascii" RangeMin="0.0001239" RangeMax="0.0001239">
          0.0001239 3.9684553797e-20 0.0001239 -4.5352314589e-19 0.0001239 -3.7752470503e-19
          0.0001239 5.7063075194e-19 0.0001239 -7.9473396385e-19 0.0001239 4.6221053469e-19
          0.0001239 -3.5041965071e-19 0.0001239 4.9657836642e-19 0.0001239 -1.3357921622e-19
          0.0001239 -7.4052385523e-20 0.0001239 -2.6715843244e-19 0.0001239 -3.7220798296e-19
          0.0001239 -7.9369107594e-20 0.0001239 5.3167220709e-21 0.0001239 2.1788332241e-20
          0.0001239 -2.9763415348e-20 0.0001239 2.446577945e-19 0.0001239 -3.7026192761e-20
          0.0001239 1.2826249415e-19 0.0001239 2.9089282002e-19 0.0001239 2.8078081984e-20
          0.0001239 -1.814995751e-19 0.0001239 -4.6947331211e-20 0.0001239 -2.1719658734e-19
          0.0001239 -8.9420607032e-20 0.0001239 4.6947331211e-20 0.0001239 -2.3473665605e-20
          0.0001239 -1.9469594941e-19 0.0001239 1.7605249204e-19 0.0001239 -4.7546740975e-20
          0.0001239 1.5700516639e-20 0.0001239 5.653617453e-20 0.0001239 -3.0117011132e-19
          0.0001239 -3.9684553797e-20 0.0001239 5.0312883814e-19 0.0001239 -1.9142071355e-19