<?xml version="1.0"?>
<VTKFile type="UnstructuredGrid" version="0.1" byte_order="LittleEndian" header_type="UInt32">
  <UnstructuredGrid>
    <Piece NumberOfPoints="1089" NumberOfCells="1024">
      <PointData>
        <DataArray type="Float64" Name="concentration" format="ascii" RangeMin="-0.0052606549638" RangeMax="1">
          1 0.70770094022 0.48050263063 0.31613874093 0.19164128198 0.10199218646
          0.044458904836 0.014174101062 0.0026663853839 0.00012085896781 -3.4826749767e-05 1.1423286156e-06
          6.3667068641e-07 -1.7111012529e-07 2.4034224683e-08 -9.2167269815e-10 -6.6080262074e-10 2.7551768501e-10
          -7.3928179805e-11 1.6041818144e-11 -2.8979351808e-12 3.9877466358e-13 -1.9266131264e-14 -1.3117972795e-14
          6.9719723864e-15 -2.4451822035e-15 7.3194341987e-16 -2.0041477915e-16 5.1646590424e-17 -1.2698742207e-17
          2.9943644993e-18 -6.5251372246e-19 0 1 0.55758008708 0.3957336476
          0.26076993128 0.15668075445 0.082396823757 0.035538589179 0.01132450061 0.002178705988
          0.00010945851326 -2.9393617723e-05 6.9499649346e-07 5.9445182224e-07 -1.4909618875e-07 1.9434790852e-08
          -3.1812498907e-10 -6.7786368999e-10 2.5517094908e-10 -6.5283643734e-11 1.3556146264e-11 -2.3014888582e-12
          2.7366165418e-13 3.4221302114e-15 -1.6350972591e-14 7.1617289522e-15 -2.3467395083e-15 6.7478280019e-16
          -1.7921368863e-16 4.4953139303e-17 -1.0762034457e-17 2.4661684715e-18 -5.2102095882e-19 0
          1 0.52388068552 0.31128892579 0.18317706492 0.10349255653 0.052835227235
          0.022391752617 0.0070366449279 0.0013491094788 7.1140553757e-05 -1.8445907265e-05 2.1161779062e-07
          4.1742565585e-07 -9.4653769356e-08 1.0524494517e-08 3.9398218261e-10 -5.5451533091e-10 1.7910475456e-10
          -4.1823817037e-11 7.8564557705e-12 -1.1227677153e-12 6.8126801453e-14 2.998413103e-14 -1.6894986634e-14
          5.9174127352e-15 -1.7429233433e-15 4.655962526e-16 -1.1618479705e-16 2.743033569e-17 -6.1503507577e-18
          1.304249768e-18 -2.5151285821e-19 0 1 0.54272919298 0.2641730013
          0.13064746495 0.061848327758 0.028388331527 0.011527504594 0.0035275050628 0.00065555369042
          3.2089387556e-05 -9.0079218636e-06 8.2029735321e-08 2.0548943146e-07 -4.4075539719e-08 4.2500423323e-09
          3.8987198698e-10 -2.9554371777e-10 8.61958083e-11 -1.8502516362e-11 3.0910668809e-12 -3.3355637644e-13
          -1.903278419e-14 2.5729406657e-14 -1.0245247991e-14 3.1543287592e-15 -8.5510355092e-16 2.1311718438e-16
          -4.9662939242e-17 1.0861244978e-17 -2.2124747286e-18 4.0969557166e-19 -6.4583397781e-20 0
          1 0.57235702712 0.23090216175 0.096085446232 0.034528282295 0.012793356127
          0.0048203728024 0.0014312995687 0.00025278697446 9.5359659362e-06 -3.5578081395e-06 8.8117609815e-08
          7.101201907e-08 -1.6424091825e-08 1.7173158445e-09 1.0505684423e-10 -1.0080526113e-10 3.0113382528e-11
          -6.4686988817e-12 1.0611012351e-12 -1.0522884931e-13 -1.0858423604e-14 1.0217854512e-14 -3.8768856546e-15
          1.1603256204e-15 -3.0630142234e-16 7.4012948937e-17 -1.6563268715e-17 3.4178203174e-18 -6.3382703341e-19
          9.7839751141e-20 -9.7807621914e-21 0 1 0.59909566258 0.210855493
          0.070069655278 0.016768161892 0.004595490288 0.0016095951833 0.00046297577559 7.6604961072e-05
          1.5816395421e-06 -1.165245311e-06 6.1251398702e-08 2.0284704861e-08 -5.9761554225e-09 7.9060850519e-10
          6.1080268982e-12 -3.6676375882e-11 1.2816309279e-11 -3.0499580625e-12 5.518396312e-13 -6.4928701607e-14
          -2.7173303294e-15 4.853410234e-15 -2.0118035141e-15 6.3053204488e-16 -1.7148965927e-16 4.2236250461e-17
          -9.5343049513e-18 1.9560523545e-18 -3.5039540344e-19 4.7846409633e-20 -2.2716148267e-21 0
          1 0.6194827306 0.2036316874 0.048773770095 0.0055811646974 0.0010774202444
          0.00046064976252 0.0001108720441 1.6902635286e-05 3.752058299e-07 -3.6631426361e-07 2.1317217143e-08
          9.1298064461e-09 -2.9211491458e-09 4.0032576631e-10 1.4851465057e-11 -2.6144559574e-11 9.2297094206e-12
          -2.2844824857e-12 4.4048038553e-13 -6.0476928348e-14 1.478560419e-15 2.8142678601e-15 -1.3625560736e-15
          4.6147564249e-16 -1.3399952246e-16 3.5393281763e-17 -8.7014106292e-18 2.0041819654e-18 -4.2967500425e-19
          8.3645909947e-20 -1.3804920694e-20 0 1 0.63329807884 0.20564222239
          0.03021369767 -0.00075304215499 2.7382557047e-05 0.00018834060876 4.7567003934e-06 2.2844964138e-06
          7.1696093218e-07 -2.3482836092e-07 2.1605564494e-08 3.4083119401e-09 -1.6734282538e-09 3.4072923862e-10
          -3.513415424e-11 -3.9736382723e-12 3.4065689092e-12 -1.2202921702e-12 3.4610720651e-13 -8.6586498289e-14
          1.9577582034e-14 -3.9214825801e-15 6.3327600124e-16 -4.8263328432e-17 -2.0273391834e-17 1.4007115651e-17
          -5.8363908175e-18 2.0338146094e-18 -6.4050876824e-19 1.8710051693e-19 -4.856158968e-20 0
          1 0.64135828347 0.21109208625 0.014323100963 -0.0038304550945 3.8067965487e-05
          0.00015333862003 -2.9235755985e-05 2.2469570003e-06 7.514771971e-07 -3.138121181e-07 6.624760441e-08
          -8.9609148518e-09 2.8500870212e-10 3.1268135716e-10 -1.3740704846e-10 3.9330931873e-11 -8.7701944339e-12
          1.4575180971e-12 -1.0387232251e-13 -4.6451373949e-14 2.8601271805e-14 -1.0488695912e-14 3.1139231509e-15
          -7.9883087089e-16 1.7788838402e-16 -3.2626239536e-17 3.8161322427e-18 3.9634917158e-19 -4.7854769784e-19
          2.1657380671e-19 -7.1206080451e-20 0 1 0.64450550072 0.21508850599
          0.0032195289637 -0.0050523850516 0.00032726637934 0.00013571437672 -4.4158967302e-05 5.8079789861e-06
          3.081612137e-07 -3.8108766655e-07 1.1929752652e-07 -2.4827747557e-08 3.2891480696e-09 4.2098439665e-11
          -2.0260263031e-10 8.3159745222e-11 -2.3963845136e-11 5.5566636579e-12 -1.0267556221e-12 1.2328285005e-13
          7.3779223098e-15 -1.1192363489e-14 4.7816045358e-15 -1.5452422222e-15 4.2793236361e-16 -1.0486671772e-16
          2.2585396183e-17 -4.0323987958e-18 4.5884307309e-19 4.6719567346e-20 -4.8022197584e-20 0
          1 0.64315538181 0.21480508579 -0.00023904659567 -0.0052606549638 0.00048994740015
          0.00011954416179 -5.0717969665e-05 8.6742505991e-06 -2.1105603475e-07 -3.8135855757e-07 1.5174879222e-07
          -3.7327778843e-08 6.316867532e-09 -4.4526732142e-10 -1.8263968021e-10 1.0512366808e-10 -3.5076586928e-11
          9.2082529846e-12 -1.9943521996e-12 3.3776786421e-13 -3.0576913033e-14 -7.1998418879e-15 5.3620920252e-15
          -2.0868775024e-15 6.5160989113e-16 -1.7781555831e-16 4.3405512199e-17 -9.4070755798e-18 1.7232183303e-18
          -2.2131133061e-19 6.6322086427e-22 0 1 0.63704094791 0.20947891538
          0.0051049876992 -0.0046733951043 0.0004011521506 0.00012344212454 -5.055764792e-05 8.9894093081e-06
          -3.4994466827e-07 -3.6360381007e-07 1.5771681582e-07 -4.1565393525e-08 7.7757444284e-09 -7.9672926202e-10
          -1.2559503474e-10 1.0315479027e-10 -3.7978064541e-11 1.0656904158e-11 -2.4666687166e-12 4.6035477379e-13
          -5.6432884692e-14 -3.1984120921e-15 5.1943977488e-15 -2.2764423428e-15 7.5469832721e-16 -2.1516212086e-16
          5.4693727902e-17 -1.242511283e-17 2.4484848393e-18 -3.7672533306e-19 2.8924671046e-20 0
          1 0.6250137751 0.20060340684 0.017393667389 -0.0029790650002 0.00018972623983
          0.00012820835542 -4.2837607302e-05 6.5919413392e-06 -5.3055437233e-09 -3.5596610831e-07 1.3829545242e-07
          -3.5198021809e-08 6.4474087429e-09 -6.2155775965e-10 -1.2579128177e-10 9.4506727049e-11 -3.4586058361e-11
          9.7450186426e-12 -2.2710477488e-12 4.2692186324e-13 -5.2621753568e-14 -3.075145442e-15 4.9459525286e-15
          -2.1765985084e-15 7.2440723212e-16 -2.0710985341e-16 5.2716896861e-17 -1.1966777795e-17 2.3478562344e-18
          -3.5623794675e-19 2.5312232104e-20 0 1 0.60477561809 0.19223747591
          0.033337951319 0.00048863986567 0.00012558110358 0.0001070342874 -3.1050619564e-05 3.2084030379e-06
          5.2308020454e-07 -3.4880439043e-07 1.0392074657e-07 -2.193156082e-08 3.0493628266e-09 1.975558518e-11
          -2.0000661593e-10 8.9302921073e-11 -2.8091888488e-11 7.2247117657e-12 -1.5419711968e-12 2.5125220854e-13
          -1.7084945842e-14 -8.6295446059e-15 5.3246435095e-15 -2.0074414287e-15 6.2082470576e-16 -1.6861949852e-16
          4.0924056357e-17 -8.7697957017e-18 1.5658792393e-18 -1.8475323506e-19 -6.7937502296e-21 0
          1 0.57219812919 0.19039292132 0.050361272965 0.0062239144176 0.00052265519079
          6.7027961042e-05 -2.5230628667e-05 1.1788532808e-06 9.6311208366e-07 -3.730854969e-07 8.2662423251e-08
          -1.1275563863e-08 -1.5283350558e-10 7.3732368625e-10 -3.156474866e-10 9.6385086745e-11 -2.4231792182e-11
          5.0831117592e-12 -8.1698909522e-13 5.436587266e-14 2.8097275392e-14 -1.7201502066e-14 6.4739115653e-15
          -2.0033887313e-15 5.4543913361e-16 -1.3295290016e-16 2.870332711e-17 -5.2004586054e-18 6.3649118017e-19
          3.278658051e-20 -5.0864373293e-20 0 1 0.51915971808 0.19974362817
          0.066501182138 0.013859157581 0.0016071495791 4.8552591102e-05 -3.6594573293e-05 2.1741872441e-06
          1.207534659e-06 -4.743092267e-07 1.0058914252e-07 -1.1846339512e-08 -1.0041016048e-09 1.1242012381e-09
          -4.2931233011e-10 1.2264393173e-10 -2.9063634937e-11 5.6962686726e-12 -8.1474612464e-13 1.9952299016e-14
          4.2808470101e-14 -2.169468433e-14 7.6254513883e-15 -2.2611856847e-15 5.9573224981e-16 -1.4109688391e-16
          2.9599190315e-17 -5.1725559973e-18 5.827009545e-19 5.2691388516e-20 -5.5916409665e-20 0
          1 0.44324388865 0.20974054459 0.079533952486 0.021729698914 0.0032915980395
          6.4690679564e-05 -6.3963765949e-05 6.2437366541e-06 1.1016655425e-06 -6.0276480253e-07 1.5027355559e-07
          -2.4359776056e-08 1.3940794434e-09 8.1761736226e-10 -4.3645094611e-10 1.4457377373e-10 -3.87502915e-11
          8.8576807827e-12 -1.6984131849e-12 2.4033510541e-13 -6.4488278233e-15 -1.2102465586e-14 6.1634730527e-15
          -2.1749822652e-15 6.5005030916e-16 -1.7375438261e-16 4.220859644e-17 -9.2713272678e-18 1.7840233128e-18
          -2.7227789198e-19 2.2306948459e-20 0 0.6635309068 0.43816844046 0.19955037176
          0.086187121462 0.027546466 0.0048480868217 7.072140223e-05 -8.6675484223e-05 1.1117272017e-05
          4.4167145734e-07 -5.8950469957e-07 1.8015809504e-07 -3.7731824326e-08 5.4426102589e-09 -1.6994122904e-10
          -2.4069697801e-10 1.1702518831e-10 -3.8511224428e-11 1.0556894351e-11 -2.5327743433e-12 5.3202370808e-13
          -9.3058808651e-14 1.0833086371e-14 6.8248062595e-16 -1.0080732718e-15 4.403598266e-16 -1.4804237208e-16
          4.3483907605e-17 -1.1620389865e-17 2.8642309818e-18 -6.5023849995e-19 1.3060553216e-19 0
          0.43584264866 0.33565699755 0.19196809713 0.084860707738 0.02855333842 0.0051494030418
          3.020340495e-05 -8.0918232035e-05 1.2773200109e-05 -4.8878131532e-07 -3.5079245063e-07 1.4277093083e-07
          -3.6850422774e-08 7.3871758507e-09 -1.090995607e-09 5.4586686728e-11 3.9535365776e-11 -2.1272546104e-11
          7.426839647e-12 -2.1623342328e-12 5.5859162636e-13 -1.3012467848e-13 2.7058326695e-14 -4.7784337725e-15
          5.9107385104e-16 1.6838139054e-17 -4.5488227334e-17 2.0940141795e-17 -7.265547536e-18 2.1978847509e-18
          -6.0539635299e-19 1.4745900438e-19 0 0.26221431013 0.21726083599 0.13892214648
          0.067817139614 0.022504897225 0.0038242904913 -1.9064445766e-05 -4.8738796952e-05 9.2536948612e-06
          -8.8893763845e-07 -6.8178118437e-08 6.2364052301e-08 -2.0726316308e-08 5.2533533809e-09 -1.1128072481e-09
          1.9221449614e-10 -2.1641079334e-11 -1.5587840949e-12 2.0431807197e-12 -8.6580876536e-13 2.8385913885e-13
          -8.1371213617e-14 2.1199215189e-14 -5.0780969805e-15 1.112930956e-15 -2.1737171859e-16 3.4917208322e-17
          -3.1819643843e-18 -6.6534963763e-19 5.2454640909e-19 -2.1166398695e-19 6.4774325629e-20 0
          0.13457771258 0.11546133716 0.076768626803 0.037979478764 0.012299630994 0.0018966790085
          -2.6177113397e-05 -1.7655822239e-05 3.9118779988e-06 -5.56966254e-07 4.1218502132e-08 8.4051464889e-09
          -5.2885415412e-09 1.7847007768e-09 -4.893376517e-10 1.1774912845e-10 -2.5142042862e-11 4.6058109302e-12
          -6.2746133116e-13 1.1971094048e-14 3.3721065296e-14 -1.7031445497e-14 6.1091044976e-15 -1.8836088133e-15
          5.2754377634e-16 -1.3706442647e-16 3.3249014442e-17 -7.500802629e-18 1.5469925656e-18 -2.7887727713e-19
          3.8344574848e-20 -1.9069528106e-21 0 0.05269393516 0.045793920265 0.03022517452
          0.014286538555 0.0042570273523 0.00058419011388 -1.1819636003e-05 -3.5763705773e-06 9.1263483146e-07
          -1.6112071683e-07 2.3524010203e-08 -2.4193567004e-09 -9.8207943412e-11 1.6884028241e-10 -7.1506469576e-11
          2.3506776728e-11 -6.8246577675e-12 1.8174969067e-12 -4.4897286235e-13 1.0255113597e-13 -2.1251514958e-14
          3.7895720256e-15 -4.8346152738e-16 -8.5020145602e-18 3.5719359076e-17 -1.7091639447e-17 6.1191667016e-18
          -1.9117596762e-18 5.4692612209e-19 -1.4608585458e-19 3.6633569317e-20 -8.2821415595e-21 0
          0.012714306738 0.011002130668 0.0069418405693 0.0029903366326 0.00077315861609 8.3036614482e-05
          -3.4541822153e-06 -1.2082729338e-07 9.4585674544e-08 -2.3314908899e-08 4.6155147482e-09 -8.3356260405e-10
          1.428026854e-10 -2.3096220112e-11 3.1983355948e-12 -1.8747747063e-13 -1.2023172335e-13 7.8234714187e-14
          -3.3217506617e-14 1.1971227534e-14 -3.9059999328e-15 1.1831612388e-15 -3.3660485075e-16 9.0395597806e-17
          -2.2923465216e-17 5.464177357e-18 -1.209560346e-18 2.4193127992e-19 -4.0768295069e-20 4.407056679e-21
          4.4622260402e-22 -4.3742642527e-22 0 0.00088833585869 0.00074033205814 0.00040227820984
          0.00012468026345 1.1980308781e-05 -3.4683068806e-06 -5.2404366126e-07 8.5099729674e-08 -9.3181121463e-09
          2.5737271159e-10 3.0578349368e-10 -1.174695787e-10 2.8724763923e-11 -5.5531405534e-12 9.1446984309e-13
          -1.4457242034e-13 2.9783677422e-14 -9.6006564309e-15 3.6382550728e-15 -1.2972554386e-15 4.1339138075e-16
          -1.1727657104e-16 2.947223845e-17 -6.3872462161e-18 1.085133049e-18 -8.2466542708e-20 -3.8458877338e-20
          2.6131672633e-20 -1.0730500508e-20 3.6494653349e-21 -1.1057477667e-21 2.9102359325e-22 0
          -0.00019469381022 -0.00016868312209 -0.00010576429173 -4.5311640692e-05 -1.1798415656e-05 -1.3634751287e-06
          3.7198929225e-08 -3.327941381e-10 -1.8791199686e-09 4.461103826e-10 -8.3282497754e-11 1.2198709278e-11
          -3.0830591467e-13 -5.8342157404e-13 2.4779461137e-13 -6.3668953646e-14 1.0537429635e-14 -2.7776644185e-16
          -6.0986414193e-16 3.0250182861e-16 -9.9334757725e-17 2.5854755192e-17 -5.350069709e-18 7.3522802329e-19
          3.1754855797e-20 -7.2005894514e-20 3.4747695613e-20 -1.2584049318e-20 3.9386860058e-21 -1.1151694878e-21
          2.9033387288e-22 -6.7098860462e-23 0 1.0826050201e-05 9.8741769435e-06 7.1459016243e-06
          3.7880510701e-06 1.3083363693e-06 2.3859083021e-07 8.3856290982e-09 -3.0827104428e-10 2.7895306317e-10
          -8.2063305158e-11 7.3305473451e-12 1.6890457286e-12 -1.0402715238e-12 3.2327755373e-13 -6.9830579229e-14
          8.4765114846e-15 1.1219763033e-15 -1.1290930075e-15 4.4968418329e-16 -1.3242832951e-16 3.1195547349e-17
          -5.5650649948e-18 4.6172182908e-19 1.7893698558e-19 -1.2416759468e-19 4.9831360834e-20 -1.6308722794e-20
          4.7130621321e-21 -1.237057284e-21 2.9733510605e-22 -6.5086294835e-23 1.2450797951e-23 0
          2.873489274e-06 2.3797101907e-06 1.2873486669e-06 4.0337699864e-07 4.4733835045e-08 -9.8976571269e-09
          -2.0258569865e-09 3.456859519e-11 4.9618070788e-11 5.0844825373e-12 -1.2103439127e-12 -4.4113342978e-13
          2.5250612758e-13 -6.4473276909e-14 7.9682462682e-15 1.3907380846e-15 -1.2495391801e-15 4.8156977134e-16
          -1.3535747147e-16 2.9168654707e-17 -4.0960222179e-18 -1.6389894828e-19 3.890876939e-19 -1.8384899979e-19
          6.4313595972e-20 -1.9190045333e-20 5.0971931966e-21 -1.2183840038e-21 2.5925211193e-22 -4.6950576457e-23
          6.2107252929e-24 -1.9548616238e-25 0 -1.1962566772e-06 -1.0163250939e-06 -6.0080562064e-07
          -2.3299770139e-07 -5.2472980858e-08 -4.6849553548e-09 1.0631311376e-10 -3.8650927085e-11 -2.5493492525e-11
          3.4173718503e-12 5.9350071324e-14 1.7013995776e-14 -3.0136443185e-14 7.4800869473e-15 2.6223745494e-16
          -8.7396303559e-16 3.9625777029e-16 -1.1772532618e-16 2.5038522371e-17 -2.908731175e-18 -5.2970459363e-19
          4.930148947e-19 -2.0844786901e-19 6.8365834903e-20 -1.9173205068e-20 4.7173379445e-21 -1.0076072021e-21
          1.7504952529e-22 -1.8265014209e-23 -2.6148676871e-24 2.4205211206e-24 -9.0978169946e-25 0
          2.9088485053e-07 2.4810562162e-07 1.4855442076e-07 5.9344085983e-08 1.4391065197e-08 1.6782752979e-09
          5.397757563e-11 1.3530976774e-11 4.3918515941e-12 -1.6387746028e-12 1.525783886e-13 4.0956576636e-16
          -7.4930838055e-16 5.0719470895e-16 -5.2763396356e-16 2.7085720015e-16 -9.024152558e-17 2.0688956159e-17
          -2.4556180954e-18 -5.2519110967e-19 4.706414825e-19 -1.9738235274e-19 6.3586386256e-20 -1.7217618046e-20
          3.9713871367e-21 -7.4479072377e-22 8.9365791246e-23 7.7562536108e-24 -1.0031948643e-23 4.4061664716e-24
          -1.476346525e-24 4.1012579059e-25 0 -5.6919658133e-08 -4.8461930551e-08 -2.886453176e-08
          -1.1506781607e-08 -2.8455882127e-09 -3.689147016e-10 -2.0315242789e-11 -1.7725601786e-12 -9.0980750814e-14
          4.0435879487e-13 -8.4202208574e-14 6.2250701139e-15 9.5737733586e-16 -6.0540860877e-16 2.3153562222e-16
          -7.2861922915e-17 1.7434894966e-17 -2.3842507547e-18 -3.3597353524e-19 3.8114484847e-19 -1.6765035978e-19
          5.4835598092e-20 -1.4731680564e-20 3.2669581657e-21 -5.4560838298e-22 3.4007349088e-23 2.2615002516e-23
          -1.3813548121e-23 5.3249690109e-24 -1.7085524589e-24 4.6593265963e-25 -1.0956759138e-25 0
          9.3174340774e-09 7.869595298e-09 4.58233561e-09 1.7844471429e-09 4.425472552e-10 6.2480626744e-11
          4.0422651461e-12 -3.224917175e-13 -1.5602146318e-13 -5.9051786953e-14 2.636454888e-14 -4.0505441442e-15
          -1.1960375217e-18 1.9651335656e-16 -7.5276434432e-17 1.9187009238e-17 -3.2042763949e-18 2.6696913605e-21
          2.6405448791e-19 -1.3303898382e-19 4.5770305111e-20 -1.2563243983e-20 2.7836431965e-21 -4.4474084017e-22
          1.4718144949e-23 2.5722911632e-23 -1.4100962534e-23 5.2558702315e-24 -1.6291588681e-24 4.4490706743e-25
          -1.3224103864e-25 9.7226217798e-27 0 -1.1270023395e-09 -9.0929536323e-10 -4.8671162792e-10
          -1.7494700325e-10 -4.3752490011e-11 -7.4396534704e-12 -4.0099169535e-13 2.6750675184e-13 4.6868193754e-14
          9.1964495348e-16 -5.8424897799e-15 1.571831454e-15 -1.5068965732e-16 -3.4612999628e-17 1.9813607059e-17
          -5.0797321474e-18 6.7113390067e-19 8.761431704e-20 -9.3065442353e-20 3.7765858743e-20 -1.1176860971e-20
          2.5985674021e-21 -4.3767120814e-22 2.2190872045e-23 2.1667119669e-23 -1.2564085305e-23 4.7465680654e-24
          -1.4791878533e-24 4.0728574109e-25 -9.0931742102e-26 1.1393487292e-26 -2.4416175337e-26 0
          9.3958003884e-11 1.682385217e-11 -1.5869102485e-11 -1.6381933531e-11 -3.3083626123e-12 4.3869692069e-13
          -7.7890695394e-14 -1.6280891574e-13 -1.3574761912e-14 4.0047560179e-15 1.7417866749e-15 -7.989764907e-16
          1.336600784e-16 1.8933703734e-18 -7.417441631e-18 2.2143545804e-18 -2.8980756137e-19 -4.8249282076e-20
          4.3980471331e-20 -1.6644151535e-20 4.5252584807e-21 -9.1780544569e-22 1.0694220853e-22 1.6035658997e-23
          -1.5952172485e-23 6.8006128225e-24 -2.2461347883e-24 6.3624308341e-25 -1.5499561077e-25 4.1410961621e-26
          -1.6938086076e-27 -1.2219080882e-26 0
        </DataArray>
        <DataArray type="Float64" Name="pressure" format="ascii" RangeMin="-0.010704587709" RangeMax="1.0929019654">
          1.0929019654 1.0855595766 1.0737054627 1.0618993959 1.0512799295 1.0424003207
          1.0353657408 1.0299952156 1.0259389537 1.0228074083 1.0202915936 1.018201974
          1.0164324541 1.014917409 1.0136107169 1.0124778805 1.0114921917 1.0106324382
          1.0098814628 1.0092252031 1.0086520211 1.0081522196 1.007717682 1.0073416003
          1.0070182643 1.0067428971 1.0065115263 1.0063208813 1.0061683133 1.0060517323
          1.0059695593 1.0059206903 1.0059044727 1.038724899 1.0356756899 1.0289023486
          1.0211828269 1.0138896479 1.0075216923 1.0021811215 0.99779260417 0.99421002338
          0.99127403905 0.9888412161 0.98679704336 0.98505801972 0.98356504145 0.98227501838
          0.981155189 0.9801798831 0.97932855664 0.97858450551 0.97793398676 0.97736559521
          0.97686980732 0.9764386393 0.97606538572 0.97574441672 0.97547101898 0.97524127006
          0.97505193905 0.97490040803 0.97478461074 0.97470298552 0.9746544406 0.9746383302
          0.9936209737 0.99184942583 0.9872564014 0.98189561787 0.97681420768 0.97228998842
          0.96832630175 0.96486334449 0.9618509146 0.95924889995 0.9570137058 0.95509493213
          0.95344243711 0.95201294054 0.95077138984 0.94968962977 0.94874484773 0.94791837354
          0.9471947897 0.94656126974 0.94600708093 0.94552320511 0.94510204552 0.9447371975
          0.9444232674 0.94415572857 0.94393080647 0.94374538698 0.94359694357 0.94348348004
          0.94340348649 0.94335590672 0.94334011576 0.95256478218 0.95143281207 0.94812369646
          0.9442474821 0.94058085054 0.93728384498 0.93430388051 0.93157711449 0.92909009067
          0.92685323012 0.92487055811 0.92312964706 0.92160677693 0.92027517102 0.91910972294
          0.91808845439 0.91719257789 0.91640615904 0.91571570727 0.91510979506 0.91457873114
          0.91411428876 0.91370948256 0.9133583862 0.91305598359 0.91279804779 0.91258104241
          0.91240204195 0.91225866768 0.91214903694 0.91207172378 0.91202572973 0.91201046364
          0.91370885459 0.91293051752 0.91050829888 0.90767104879 0.9050008159 0.90256350313
          0.90028454264 0.89812141029 0.89608282259 0.89419606787 0.89248198496 0.89094598582
          0.889580762 0.88837240777 0.88730498257 0.88636285475 0.88553167337 0.88479867097
          0.88415266942 0.8835839658 0.8830841794 0.8826460953 0.88226351944 0.88193115051
          0.88164446958 0.8813996466 0.88119346211 0.88102324246 0.8808868069 0.88078242511
          0.88070878404 0.88066496294 0.88065041616 0.87619051817 0.87565042265 0.87390485498
          0.87179746134 0.86985089556 0.86804965326 0.86629717624 0.86458004506 0.86292396925
          0.86135971194 0.85991096637 0.85858971952 0.85739747821 0.85632896879 0.85537544882
          0.8545268771 0.85377314283 0.85310468883 0.85251278538 0.85198961693 0.85152827365
          0.85112269863 0.85076761731 0.85045846335 0.85019130791 0.84996279552 0.84977008784
          0.84961081551 0.84948303783 0.84938520974 0.84931615568 0.84927504977 0.84926140195
          0.83954721461 0.83918202735 0.83796253815 0.83639654 0.83499202029 0.83367352383
          0.83233794781 0.83099303522 0.82967181639 0.82840312972 0.82720880628 0.82610233772
          0.82508946936 0.82417022662 0.82334102095 0.82259629466 0.82192963852 0.82133448147
          0.82080448326 0.82033373889 0.81991687025 0.819549053 0.81922600822 0.81894397622
          0.81869968266 0.81849030291 0.81831342777 0.81816703235 0.81804944878 0.81795934326
          0.81789569742 0.81785779401 0.81784520669 0.80348606757 0.8032490951 0.80243530375
          0.8013080401 0.80033328114 0.799395768 0.79840644063 0.79738581875 0.79636520349
          0.79536901581 0.79441610408 0.79351949183 0.79268671022 0.79192086836 0.79122189084
          0.79058763215 0.79001474323 0.78949928278 0.78903711969 0.78862418294 0.78825660818
          0.78793081741 0.78764355664 0.78739190838 0.78717328943 0.78698544078 0.78682641377
          0.78669455528 0.78658849326 0.78650712379 0.78644960001 0.78641532337 0.7864039373
          0.76780739773 0.76766403479 0.76716855666 0.76643574807 0.76581829578 0.76519613587
          0.76450779959 0.76377826919 0.76303244469 0.76228952836 0.76156522052 0.76087134433
          0.76021598472 0.75960400051 0.75903768276 0.75851743732 0.75804238345 0.75761082792
          0.75722061533 0.7568693739 0.75655468147 0.75627417379 0.75602561272 0.75580692729
          0.75561623685 0.75545186258 0.75531233174 0.75519637767 0.7551029373 0.7550311477
          0.75498034233 0.75495004772 0.75493998089 0.73237103742 0.73230003223 0.73207411838
          0.73172534774 0.73141470555 0.73106460192 0.73064840925 0.73018636926 0.72969553504
          0.72919008881 0.72868264228 0.72818359725 0.72770104134 0.72724086135 0.72680699987
          0.72640180502 0.72602639287 0.72568097617 0.7253651382 0.72507804801 0.72481862309
          0.724585649 0.72437786532 0.7241940265 0.72403294428 0.72389351667 0.72377474755
          0.72367575955 0.72359580238 0.72353425795 0.72349064349 0.72346461329 0.72345595965
          0.6970733412 0.6970656609 0.69709291258 0.69713087534 0.69709829737 0.69699518023
          0.69683373367 0.69662309977 0.69637257368 0.69609190276 0.69579088399 0.69547861706
          0.69516307638 0.69485088237 0.69454725441 0.6942561052 0.69398021286 0.69372142219
          0.69348084249 0.6932590244 0.69305610889 0.69287194806 0.69270620061 0.69255840572
          0.69242803971 0.6923145588 0.69221743121 0.69213616107 0.69207030602 0.69201948999
          0.69198341237 0.69196185439 0.69195468324 0.66182898614 0.66188613543 0.66217544503
          0.66260029461 0.66284465078 0.66298341785 0.66306871865 0.66310003707 0.66307971459
          0.66301382693 0.66290998612 0.66277644563 0.66262129216 0.66245190282 0.66227465827
          0.66209484685 0.66191669689 0.66174348212 0.66157765935 0.66142101202 0.66127478487
          0.66113980259 0.66101657039 0.66090535688 0.66080626113 0.66071926629 0.66064428168
          0.66058117582 0.66052980183 0.66049001678 0.66046169608 0.66044474386 0.66043909995
          0.62655677837 0.6266912195 0.6272801901 0.62808916384 0.62863327428 0.62902704611
          0.62935975903 0.62962942746 0.62983298422 0.62997389971 0.63005870569 0.63009563074
          0.63009339836 0.63006040843 0.63000427588 0.62993161326 0.62984798034 0.62975793383
          0.62966512987 0.62957244807 0.62948211779 0.62939583611 0.62931487251 0.6292401587
          0.62917236382 0.62911195637 0.62905925444 0.62901446599 0.62897772065 0.62894909449
          0.6289286288 0.62891634381 0.62891224806 0.59116857224 0.59140390956 0.59236966784
          0.59357296945 0.59445298872 0.59512820996 0.59571734932 0.59622642902 0.59664998211
          0.59699061018 0.59725542429 0.59745383601 0.59759597965 0.59769171149 0.59775006872
          0.59777901669 0.5977853815 0.59777489026 0.59775226853 0.59772136259 0.597685267
          0.59764644616 0.59760684426 0.59756798136 0.59753103531 0.59749691032 0.5974662935
          0.59743970089 0.59741751425 0.59740001017 0.59738738228 0.59737975775 0.59737720849
          0.55556557339 0.55593211585 0.55739619395 0.55904003114 0.56030287101 0.56129711994
          0.56215915639 0.56291135676 0.56355136616 0.56408382792 0.56451871722 0.56486817628
          0.56514467348 0.56536001809 0.56552488536 0.56564863656 0.5657393078 0.56580368904
          0.56584744682 0.56587526319 0.56589097469 0.56589770246 0.56589796934 0.56589380214
          0.56588681934 0.5658783048 0.56586926918 0.56586050013 0.56585260292 0.56584603265
          0.5658411191 0.56583808525 0.56583705992 0.51966565128 0.5201802717 0.52232678711
          0.52449726558 0.52620098908 0.52755901434 0.52871362827 0.52971173506 0.53056185976
          0.53127519639 0.53186746522 0.53235521119 0.53275411547 0.53307835129 0.53334037157
          0.53355092103 0.53371915257 0.5338527877 0.53395829015 0.53404103614 0.53410547272
          0.53415526034 0.53419339824 0.53422233273 0.53424404953 0.5342601514 0.53427192269
          0.53428038253 0.53428632784 0.53429036763 0.53429294964 0.53429438008 0.53429483737
          0.48272252284 0.48441550175 0.48730017148 0.49001394121 0.49221086448 0.49396384293
          0.49542395971 0.49666358225 0.49771023886 0.49858769027 0.49932037097 0.49993054322
          0.50043763416 0.50085832378 0.50120679701 0.50149504859 0.50173317852 0.50192966147
          0.50209158566 0.50222486192 0.50233440493 0.5024242892 0.5024978824 0.5025579586
          0.50260679365 0.50264624508 0.50267781838 0.50270272151 0.50272190909 0.50273611776
          0.5027458936 0.50275161258 0.50275349476 0.44664822189 0.44904086601 0.45259447735
          0.45580087628 0.45845433006 0.4605952028 0.46235076898 0.463810381 0.46502750281
          0.4660440433 0.46689480365 0.46760802447 0.46820672172 0.46870978621 0.46913281782
          0.46948876177 0.46978839516 0.47004070731 0.47025320268 0.47043214637 0.47058276558
          0.47070941637 0.47081572247 0.47090469097 0.47097880868 0.47104012221 0.47109030421
          0.47113070765 0.47116240996 0.4711862482 0.47120284656 0.47121263676 0.4712158723
          0.41313403693 0.41488819983 0.41853370036 0.42209788607 0.42511014491 0.42757191896
          0.42956775144 0.43119734158 0.43254265888 0.43366400616 0.43460506954 0.43539868167
          0.43607036781 0.436640413 0.43712521594 0.43753819916 0.43789044589 0.43819116342
          0.43844803127 0.43866747028 0.4388548555 0.43901468736 0.4391507312 0.43926613171
          0.43936350739 0.4394450284 0.43951248072 0.43956731872 0.43961070774 0.43964355817
          0.43966655201 0.43968016271 0.43968466894 0.38131718826 0.38263953019 0.38572750125
          0.38924008075 0.39240131202 0.39502376285 0.39714223861 0.39886023085 0.40027662083