<?xml version="1.0"?>
<VTKFile type="UnstructuredGrid" version="0.1" byte_order="LittleEndian" header_type="UInt32">
  <UnstructuredGrid>
    <Piece NumberOfPoints="1089" NumberOfCells="1024">
      <PointData>
        <DataArray type="Float64" Name="concentration" format="ascii" RangeMin="-2.8183249979e-07" RangeMax="1">
          1 0.99957954602 0.9979258162 0.99314932874 0.98187354725 0.95915462412
          0.9191835163 0.85691802885 0.77024814537 0.66176695299 0.53912722306 0.4135170411
          0.29673210374 0.19806803222 0.12231506998 0.069497776616 0.036114802682 0.017044019254
          0.0072408114118 0.0027360628726 0.00090354154888 0.00025339138851 5.7118940733e-05 8.9779835285e-06
          3.9049186474e-07 -2.8183206017e-07 -9.4255399617e-08 -1.0775166557e-08 1.8503758123e-09 8.8174308255e-10
          8.0499334658e-11 -2.9293504873e-11 0 1 0.99957954602 0.9979258162
          0.99314932874 0.98187354725 0.95915462412 0.9191835163 0.85691802885 0.77024814538
          0.661766953 0.53912722306 0.4135170411 0.29673210374 0.19806803222 0.12231506998
          0.069497776616 0.036114802682 0.017044019254 0.0072408114117 0.0027360628723 0.00090354154852
          0.00025339138815 5.7118940454e-05 8.9779833469e-06 3.9049176482e-07 -2.818321067e-07 -9.425541776e-08
          -1.0775172313e-08 1.8503744247e-09 8.8174287936e-10 8.0499342412e-11 -2.9293490237e-11 0
          1 0.99957954602 0.9979258162 0.99314932874 0.98187354725 0.95915462412
          0.9191835163 0.85691802885 0.77024814538 0.661766953 0.53912722306 0.4135170411
          0.29673210374 0.19806803222 0.12231506998 0.069497776616 0.036114802682 0.017044019254
          0.0072408114112 0.0027360628718 0.000903541548 0.00025339138771 5.711894013e-05 8.9779831442e-06
          3.904916556e-07 -2.8183215699e-07 -9.4255437264e-08 -1.0775178493e-08 1.8503729312e-09 8.817426583e-10
          8.0499349891e-11 -2.929347465e-11 0 1 0.99957954602 0.9979258162
          0.99314932874 0.98187354725 0.95915462412 0.9191835163 0.85691802885 0.77024814538
          0.661766953 0.53912722306 0.4135170411 0.29673210374 0.19806803222 0.12231506998
          0.069497776615 0.036114802682 0.017044019253 0.0072408114109 0.0027360628715 0.0009035415477
          0.00025339138747 5.7118939964e-05 8.9779830414e-06 3.9049160081e-07 -2.8183218209e-07 -9.4255446981e-08
          -1.0775181577e-08 1.8503721814e-09 8.8174254524e-10 8.049935275e-11 -2.9293466995e-11 0
          1 0.99957954602 0.9979258162 0.99314932874 0.98187354725 0.95915462412
          0.9191835163 0.85691802885 0.77024814538 0.661766953 0.53912722306 0.4135170411
          0.29673210374 0.19806803222 0.12231506998 0.069497776615 0.036114802681 0.017044019253
          0.0072408114108 0.0027360628714 0.00090354154759 0.00025339138738 5.71189399e-05 8.9779830025e-06
          3.9049158018e-07 -2.8183219152e-07 -9.4255450633e-08 -1.0775182741e-08 1.8503718961e-09 8.8174250116e-10
          8.0499353382e-11 -2.9293464171e-11 0 1 0.99957954602 0.9979258162
          0.99314932874 0.98187354725 0.95915462412 0.9191835163 0.85691802885 0.77024814538
          0.661766953 0.53912722306 0.4135170411 0.29673210374 0.19806803222 0.12231506998
          0.069497776615 0.036114802681 0.017044019253 0.0072408114108 0.0027360628713 0.00090354154755
          0.00025339138735 5.7118939879e-05 8.9779829901e-06 3.9049157364e-07 -2.8183219451e-07 -9.4255451796e-08
          -1.0775183113e-08 1.8503718037e-09 8.8174248648e-10 8.0499353416e-11 -2.9293463289e-11 0
          1 0.99957954602 0.9979258162 0.99314932874 0.98187354725 0.95915462412
          0.9191835163 0.85691802885 0.77024814538 0.661766953 0.53912722306 0.4135170411
          0.29673210374 0.19806803222 0.12231506998 0.069497776615 0.036114802681 0.017044019253
          0.0072408114108 0.0027360628713 0.00090354154754 0.00025339138734 5.7118939874e-05 8.9779829868e-06
          3.9049157184e-07 -2.8183219534e-07 -9.4255452122e-08 -1.0775183219e-08 1.850371777e-09 8.8174248208e-10
          8.0499353358e-11 -2.9293463047e-11 0 1 0.99957954602 0.9979258162
          0.99314932874 0.98187354725 0.95915462412 0.9191835163 0.85691802885 0.77024814538
          0.661766953 0.53912722306 0.4135170411 0.29673210374 0.19806803222 0.12231506998
          0.069497776615 0.036114802681 0.017044019253 0.0072408114108 0.0027360628713 0.00090354154754
          0.00025339138734 5.7118939873e-05 8.9779829861e-06 3.9049157145e-07 -2.8183219553e-07 -9.4255452197e-08
          -1.0775183244e-08 1.8503717703e-09 8.817424809e-10 8.0499353314e-11 -2.9293462992e-11 0
          1 0.99957954602 0.9979258162 0.99314932874 0.98187354725 0.95915462412
          0.9191835163 0.85691802885 0.77024814538 0.661766953 0.53912722306 0.4135170411
          0.29673210374 0.19806803222 0.12231506998 0.069497776615 0.036114802681 0.017044019253
          0.0072408114108 0.0027360628713 0.00090354154754 0.00025339138734 5.7118939873e-05 8.9779829861e-06
          3.9049157141e-07 -2.8183219555e-07 -9.4255452209e-08 -1.0775183249e-08 1.8503717691e-09 8.8174248065e-10
          8.0499353293e-11 -2.9293462984e-11 0 1 0.99957954602 0.9979258162
          0.99314932874 0.98187354725 0.95915462412 0.9191835163 0.85691802885 0.77024814538
          0.661766953 0.53912722306 0.4135170411 0.29673210374 0.19806803222 0.12231506998
          0.069497776616 0.036114802682 0.017044019253 0.0072408114108 0.0027360628713 0.00090354154755
          0.00025339138734 5.7118939873e-05 8.9779829862e-06 3.9049157143e-07 -2.8183219555e-07 -9.4255452209e-08
          -1.0775183249e-08 1.850371769e-09 8.8174248062e-10 8.0499353287e-11 -2.9293462984e-11 0
          1 0.99957954602 0.9979258162 0.99314932874 0.98187354725 0.95915462412
          0.9191835163 0.85691802885 0.77024814538 0.661766953 0.53912722306 0.4135170411
          0.29673210374 0.19806803222 0.12231506998 0.069497776616 0.036114802682 0.017044019253
          0.0072408114108 0.0027360628713 0.00090354154755 0.00025339138735 5.7118939873e-05 8.9779829862e-06
          3.9049157144e-07 -2.8183219555e-07 -9.4255452209e-08 -1.0775183249e-08 1.850371769e-09 8.8174248061e-10
          8.0499353286e-11 -2.9293462984e-11 0 1 0.99957954602 0.9979258162
          0.99314932874 0.98187354725 0.95915462412 0.9191835163 0.85691802885 0.77024814538
          0.661766953 0.53912722306 0.4135170411 0.29673210374 0.19806803222 0.12231506998
          0.069497776616 0.036114802682 0.017044019253 0.0072408114108 0.0027360628713 0.00090354154755
          0.00025339138735 5.7118939874e-05 8.9779829863e-06 3.9049157145e-07 -2.8183219555e-07 -9.4255452209e-08
          -1.0775183249e-08 1.850371769e-09 8.8174248061e-10 8.0499353286e-11 -2.9293462984e-11 0
          1 0.99957954602 0.9979258162 0.99314932874 0.98187354725 0.95915462412
          0.9191835163 0.85691802885 0.77024814538 0.661766953 0.53912722306 0.4135170411
          0.29673210374 0.19806803222 0.12231506998 0.069497776616 0.036114802682 0.017044019253
          0.0072408114108 0.0027360628714 0.00090354154755 0.00025339138735 5.7118939874e-05 8.9779829863e-06
          3.9049157145e-07 -2.8183219555e-07 -9.4255452209e-08 -1.0775183249e-08 1.850371769e-09 8.8174248062e-10
          8.0499353287e-11 -2.9293462984e-11 0 1 0.99957954602 0.9979258162
          0.99314932874 0.98187354725 0.95915462412 0.9191835163 0.85691802885 0.77024814538
          0.661766953 0.53912722306 0.4135170411 0.29673210374 0.19806803222 0.12231506998
          0.069497776616 0.036114802682 0.017044019253 0.0072408114108 0.0027360628714 0.00090354154755
          0.00025339138735 5.7118939874e-05 8.9779829863e-06 3.9049157146e-07 -2.8183219555e-07 -9.425545221e-08
          -1.0775183249e-08 1.850371769e-09 8.8174248062e-10 8.0499353287e-11 -2.9293462984e-11 0
          1 0.99957954602 0.9979258162 0.99314932874 0.98187354725 0.95915462412
          0.9191835163 0.85691802885 0.77024814538 0.661766953 0.53912722306 0.4135170411
          0.29673210374 0.19806803222 0.12231506998 0.069497776616 0.036114802682 0.017044019253
          0.0072408114108 0.0027360628714 0.00090354154755 0.00025339138735 5.7118939874e-05 8.9779829864e-06
          3.9049157146e-07 -2.8183219555e-07 -9.425545221e-08 -1.0775183249e-08 1.850371769e-09 8.8174248062e-10
          8.0499353288e-11 -2.9293462984e-11 0 1 0.99957954602 0.9979258162
          0.99314932874 0.98187354725 0.95915462412 0.9191835163 0.85691802885 0.77024814538
          0.661766953 0.53912722306 0.4135170411 0.29673210374 0.19806803222 0.12231506998
          0.069497776616 0.036114802682 0.017044019253 0.0072408114108 0.0027360628714 0.00090354154755
          0.00025339138735 5.7118939874e-05 8.9779829864e-06 3.9049157147e-07 -2.8183219555e-07 -9.425545221e-08
          -1.0775183249e-08 1.850371769e-09 8.8174248062e-10 8.0499353288e-11 -2.9293462984e-11 0
          1 0.99957954602 0.9979258162 0.99314932874 0.98187354725 0.95915462412
          0.9191835163 0.85691802885 0.77024814538 0.661766953 0.53912722306 0.4135170411
          0.29673210374 0.19806803222 0.12231506998 0.069497776616 0.036114802682 0.017044019253
          0.0072408114108 0.0027360628714 0.00090354154756 0.00025339138735 5.7118939874e-05 8.9779829864e-06
          3.9049157147e-07 -2.8183219555e-07 -9.425545221e-08 -1.0775183249e-08 1.850371769e-09 8.8174248062e-10
          8.0499353289e-11 -2.9293462984e-11 0 1 0.99957954602 0.9979258162
          0.99314932874 0.98187354725 0.95915462412 0.9191835163 0.85691802885 0.77024814538
          0.661766953 0.53912722306 0.4135170411 0.29673210374 0.19806803222 0.12231506998
          0.069497776616 0.036114802682 0.017044019253 0.0072408114109 0.0027360628714 0.00090354154756
          0.00025339138735 5.7118939874e-05 8.9779829864e-06 3.9049157147e-07 -2.8183219555e-07 -9.425545221e-08
          -1.0775183249e-08 1.850371769e-09 8.8174248063e-10 8.049935329e-11 -2.9293462984e-11 0
          1 0.99957954602 0.9979258162 0.99314932874 0.98187354725 0.95915462412
          0.9191835163 0.85691802885 0.77024814538 0.661766953 0.53912722306 0.4135170411
          0.29673210374 0.19806803222 0.12231506998 0.069497776616 0.036114802682 0.017044019253
          0.0072408114109 0.0027360628714 0.00090354154756 0.00025339138735 5.7118939874e-05 8.9779829864e-06
          3.9049157147e-07 -2.8183219555e-07 -9.4255452211e-08 -1.0775183249e-08 1.850371769e-09 8.8174248063e-10
          8.049935329e-11 -2.9293462984e-11 0 1 0.99957954602 0.9979258162
          0.99314932874 0.98187354725 0.95915462412 0.9191835163 0.85691802885 0.77024814538
          0.661766953 0.53912722306 0.4135170411 0.29673210374 0.19806803222 0.12231506998
          0.069497776616 0.036114802682 0.017044019254 0.0072408114109 0.0027360628714 0.00090354154756
          0.00025339138735 5.7118939875e-05 8.9779829865e-06 3.9049157148e-07 -2.8183219555e-07 -9.4255452211e-08
          -1.077518325e-08 1.850371769e-09 8.8174248063e-10 8.0499353291e-11 -2.9293462984e-11 0
          1 0.99957954602 0.9979258162 0.99314932874 0.98187354725 0.95915462412
          0.9191835163 0.85691802885 0.77024814538 0.661766953 0.53912722306 0.4135170411
          0.29673210374 0.19806803222 0.12231506998 0.069497776616 0.036114802682 0.017044019254
          0.0072408114109 0.0027360628714 0.00090354154756 0.00025339138735 5.7118939875e-05 8.9779829865e-06
          3.9049157148e-07 -2.8183219555e-07 -9.4255452211e-08 -1.077518325e-08 1.8503717689e-09 8.8174248063e-10
          8.0499353291e-11 -2.9293462984e-11 0 1 0.99957954602 0.9979258162
          0.99314932874 0.98187354725 0.95915462412 0.9191835163 0.85691802885 0.77024814538
          0.661766953 0.53912722306 0.4135170411 0.29673210374 0.19806803222 0.12231506998
          0.069497776616 0.036114802682 0.017044019254 0.0072408114109 0.0027360628714 0.00090354154756
          0.00025339138735 5.7118939875e-05 8.9779829865e-06 3.9049157148e-07 -2.8183219555e-07 -9.4255452211e-08
          -1.077518325e-08 1.850371769e-09 8.8174248063e-10 8.0499353291e-11 -2.9293462984e-11 0
          1 0.99957954602 0.9979258162 0.99314932874 0.98187354725 0.95915462412
          0.9191835163 0.85691802885 0.77024814538 0.661766953 0.53912722306 0.4135170411
          0.29673210374 0.19806803222 0.12231506998 0.069497776616 0.036114802682 0.017044019254
          0.0072408114109 0.0027360628714 0.00090354154756 0.00025339138735 5.7118939875e-05 8.9779829865e-06
          3.9049157148e-07 -2.8183219555e-07 -9.4255452211e-08 -1.077518325e-08 1.850371769e-09 8.8174248064e-10
          8.0499353293e-11 -2.9293462984e-11 0 1 0.99957954602 0.9979258162
          0.99314932874 0.98187354725 0.95915462412 0.9191835163 0.85691802885 0.77024814538
          0.661766953 0.53912722306 0.4135170411 0.29673210374 0.19806803222 0.12231506998
          0.069497776616 0.036114802682 0.017044019254 0.0072408114109 0.0027360628714 0.00090354154756
          0.00025339138735 5.7118939875e-05 8.9779829866e-06 3.9049157152e-07 -2.8183219553e-07 -9.4255452206e-08
          -1.0775183248e-08 1.8503717692e-09 8.8174248065e-10 8.0499353285e-11 -2.9293462988e-11 0
          1 0.99957954602 0.9979258162 0.99314932874 0.98187354725 0.95915462412
          0.9191835163 0.85691802885 0.77024814538 0.661766953 0.53912722306 0.4135170411
          0.29673210374 0.19806803222 0.12231506998 0.069497776616 0.036114802682 0.017044019254
          0.0072408114109 0.0027360628714 0.00090354154756 0.00025339138735 5.7118939875e-05 8.9779829865e-06
          3.9049157147e-07 -2.8183219555e-07 -9.4255452214e-08 -1.0775183251e-08 1.8503717686e-09 8.8174248056e-10
          8.0499353287e-11 -2.9293462982e-11 0 1 0.99957954602 0.9979258162
          0.99314932874 0.98187354725 0.95915462412 0.9191835163 0.85691802885 0.77024814538
          0.661766953 0.53912722306 0.4135170411 0.29673210374 0.19806803222 0.12231506998
          0.069497776616 0.036114802682 0.017044019254 0.0072408114109 0.0027360628714 0.00090354154756
          0.00025339138735 5.7118939876e-05 8.9779829868e-06 3.9049157159e-07 -2.8183219553e-07 -9.4255452213e-08
          -1.0775183254e-08 1.8503717667e-09 8.817424799e-10 8.0499353142e-11 -2.9293462991e-11 0
          1 0.99957954602 0.9979258162 0.99314932874 0.98187354725 0.95915462412
          0.9191835163 0.85691802885 0.77024814538 0.661766953 0.53912722306 0.4135170411
          0.29673210374 0.19806803222 0.12231506998 0.069497776616 0.036114802682 0.017044019254
          0.0072408114108 0.0027360628714 0.00090354154754 0.00025339138733 5.7118939865e-05 8.9779829809e-06
          3.904915687e-07 -2.8183219675e-07 -9.4255452653e-08 -1.0775183384e-08 1.8503717372e-09 8.8174247597e-10
          8.0499353407e-11 -2.9293462676e-11 0 1 0.99957954602 0.9979258162
          0.99314932874 0.98187354725 0.95915462412 0.9191835163 0.85691802885 0.77024814538
          0.661766953 0.53912722306 0.4135170411 0.29673210374 0.19806803222 0.12231506998
          0.069497776616 0.036114802682 0.017044019254 0.0072408114109 0.0027360628714 0.00090354154755
          0.00025339138734 5.7118939863e-05 8.9779829789e-06 3.9049156719e-07 -2.8183219762e-07 -9.4255453065e-08
          -1.0775183542e-08 1.8503716892e-09 8.817424653e-10 8.0499352181e-11 -2.9293462464e-11 0
          1 0.99957954602 0.9979258162 0.99314932874 0.98187354725 0.95915462412
          0.9191835163 0.85691802885 0.77024814538 0.661766953 0.53912722306 0.4135170411
          0.29673210374 0.19806803222 0.12231506998 0.069497776616 0.036114802682 0.017044019253
          0.0072408114104 0.0027360628709 0.00090354154715 0.00025339138706 5.7118939688e-05 8.9779828819e-06
          3.9049152014e-07 -2.8183221743e-07 -9.4255460165e-08 -1.0775185633e-08 1.8503712217e-09 8.8174240473e-10
          8.0499357043e-11 -2.9293457374e-11 0 1 0.99957954602 0.9979258162
          0.99314932874 0.98187354725 0.95915462412 0.9191835163 0.85691802885 0.77024814538
          0.661766953 0.53912722306 0.4135170411 0.29673210374 0.19806803222 0.12231506998
          0.069497776617 0.036114802682 0.017044019254 0.0072408114107 0.002736062871 0.00090354154717
          0.00025339138702 5.7118939638e-05 8.9779828415e-06 3.9049149477e-07 -2.8183223045e-07 -9.4255465698e-08
          -1.0775187559e-08 1.8503706964e-09 8.8174230559e-10 8.0499350867e-11 -2.9293453662e-11 0
          1 0.99957954602 0.9979258162 0.99314932874 0.98187354725 0.95915462412
          0.9191835163 0.85691802885 0.77024814538 0.661766953 0.53912722306 0.4135170411
          0.29673210374 0.19806803222 0.12231506998 0.069497776615 0.036114802679 0.017044019249
          0.0072408114057 0.0027360628664 0.00090354154345 0.00025339138437 5.7118937971e-05 8.9779819191e-06
          3.9049104757e-07 -2.8183241839e-07 -9.4255532861e-08 -1.0775207235e-08 1.8503663412e-09 8.8174175736e-10
          8.0499402176e-11 -2.929340549e-11 0 1 0.99957954602 0.9979258162
          0.99314932874 0.98187354725 0.95915462412 0.9191835163 0.85691802885 0.77024814538
          0.661766953 0.53912722306 0.4135170411 0.29673210374 0.19806803222 0.12231506998
          0.069497776622 0.036114802686 0.017044019255 0.0072408114099 0.0027360628688 0.00090354154445
          0.00025339138459 5.7118937871e-05 8.9779817538e-06 3.9049092307e-07 -2.8183248673e-07 -9.4255562393e-08
          -1.0775217326e-08 1.8503637452e-09 8.8174134038e-10 8.0499405924e-11 -2.9293379007e-11 0
          1 0.99957954602 0.9979258162 0.99314932874 0.98187354725 0.95915462412
          0.9191835163 0.85691802885 0.77024814538 0.661766953 0.53912722306 0.4135170411
          0.29673210374 0.19806803222 0.12231506998 0.06949777662 0.036114802685 0.017044019255
          0.0072408114101 0.0027360628691 0.00090354154467 0.00025339138469 5.7118937891e-05 8.9779817399e-06
          3.9049090406e-07 -2.8183249979e-07 -9.4255568862e-08 -1.0775219773e-08 1.8503630549e-09 8.8174121452e-10
          8.0499402333e-11 -2.9293372369e-11 0
        </DataArray>
        <DataArray type="Float64" Name="pressure" format="ascii" RangeMin="0" RangeMax="1">
          1 0.96875 0.9375 0.90625 0.875 0.84375
          0.8125 0.78125 0.75 0.71875 0.6875 0.65625
          0.625 0.59375 0.5625 0.53125 0.5 0.46875
          0.4375 0.40625 0.375 0.34375 0.3125 0.28125
          0.25 0.21875 0.1875 0.15625 0.125 0.09375
          0.0625 0.03125 0 1 0.96875 0.9375
          0.90625 0.875 0.84375 0.8125 0.78125 0.75
          0.71875 0.6875 0.65625 0.625 0.59375 0.5625
          0.53125 0.5 0.46875 0.4375 0.40625 0.375
          0.34375 0.3125 0.28125 0.25 0.21875 0.1875
          0.15625 0.125 0.09375 0.0625 0.03125 0
          1 0.96875 0.9375 0.90625 0.875 0.84375
          0.8125 0.78125 0.75 0.71875 0.6875 0.65625
          0.625 0.59375 0.5625 0.53125 0.5 0.46875
          0.4375 0.40625 0.375 0.34375 0.3125 0.28125
          0.25 0.21875 0.1875 0.15625 0.125 0.09375
          0.0625 0.03125 0 1 0.96875 0.9375
          0.90625 0.875 0.84375 0.8125 0.78125 0.75
          0.71875 0.6875 0.65625 0.625 0.59375 0.5625
          0.53125 0.5 0.46875 0.4375 0.40625 0.375
          0.34375 0.3125 0.28125 0.25 0.21875 0.1875
          0.15625 0.125 0.09375 0.0625 0.03125 0
          1 0.96875 0.9375 0.90625 0.875 0.84375
          0.8125 0.78125 0.75 0.71875 0.6875 0.65625
          0.625 0.59375 0.5625 0.53125 0.5 0.46875
          0.4375 0.40625 0.375 0.34375 0.3125 0.28125
          0.25 0.21875 0.1875 0.15625 0.125 0.09375
          0.0625 0.03125 0 1 0.96875 0.9375
          0.90625 0.875 0.84375 0.8125 0.78125 0.75
          0.71875 0.6875 0.65625 0.625 0.59375 0.5625
          0.53125 0.5 0.46875 0.4375 0.40625 0.375
          0.34375 0.3125 0.28125 0.25 0.21875 0.1875
          0.15625 0.125 0.09375 0.0625 0.03125 0
          1 0.96875 0.9375 0.90625 0.875 0.84375
          0.8125 0.78125 0.75 0.71875 0.6875 0.65625
          0.625 0.59375 0.5625 0.53125 0.5 0.46875
          0.4375 0.40625 0.375 0.34375 0.3125 0.28125
          0.25 0.21875 0.1875 0.15625 0.125 0.09375
          0.0625 0.03125 0 1 0.96875 0.9375
          0.90625 0.875 0.84375 0.8125 0.78125 0.75
          0.71875 0.6875 0.65625 0.625 0.59375 0.5625
          0.53125 0.5 0.46875 0.4375 0.40625 0.375
          0.34375 0.3125 0.28125 0.25 0.21875 0.1875
          0.15625 0.125 0.09375 0.0625 0.03125 0
          1 0.96875 0.9375 0.90625 0.875 0.84375
          0.8125 0.78125 0.75 0.71875 0.6875 0.65625
          0.625 0.59375 0.5625 0.53125 0.5 0.46875
          0.4375 0.40625 0.375 0.34375 0.3125 0.28125
          0.25 0.21875 0.1875 0.15625 0.125 0.09375
          0.0625 0.03125 0 1 0.96875 0.9375
          0.90625 0.875 0.84375 0.8125 0.78125 0.75
          0.71875 0.6875 0.65625 0.625 0.59375 0.5625
          0.53125 0.5 0.46875 0.4375 0.40625 0.375
          0.34375 0.3125 0.28125 0.25 0.21875 0.1875
          0.15625 0.125 0.09375 0.0625 0.03125 0
          1 0.96875 0.9375 0.90625 0.875 0.84375
          0.8125 0.78125 0.75 0.71875 0.6875 0.65625
          0.625 0.59375 0.5625 0.53125 0.5 0.46875
          0.4375 0.40625 0.375 0.34375 0.3125 0.28125
          0.25 0.21875 0.1875 0.15625 0.125 0.09375
          0.0625 0.03125 0 1 0.96875 0.9375
          0.90625 0.875 0.84375 0.8125 0.78125 0.75
          0.71875 0.6875 0.65625 0.625 0.59375 0.5625
          0.53125 0.5 0.46875 0.4375 0.40625 0.375
          0.34375 0.3125 0.28125 0.25 0.21875 0.1875
          0.15625 0.125 0.09375 0.0625 0.03125 0
          1 0.96875 0.9375 0.90625 0.875 0.84375
          0.8125 0.78125 0.75 0.71875 0.6875 0.65625
          0.625 0.59375 0.5625 0.53125 0.5 0.46875
          0.4375 0.40625 0.375 0.34375 0.3125 0.28125
          0.25 0.21875 0.1875 0.15625 0.125 0.09375
          0.0625 0.03125 0 1 0.96875 0.9375
          0.90625 0.875 0.84375 0.8125 0.78125 0.75
          0.71875 0.6875 0.65625 0.625 0.59375 0.5625
          0.53125 0.5 0.46875 0.4375 0.40625 0.375
          0.34375 0.3125 0.28125 0.25 0.21875 0.1875
          0.15625 0.125 0.09375 0.0625 0.03125 0
          1 0.96875 0.9375 0.90625 0.875 0.84375
          0.8125 0.78125 0.75 0.71875 0.6875 0.65625
          0.625 0.59375 0.5625 0.53125 0.5 0.46875
          0.4375 0.40625 0.375 0.34375 0.3125 0.28125
          0.25 0.21875 0.1875 0.15625 0.125 0.09375
          0.0625 0.03125 0 1 0.96875 0.9375
          0.90625 0.875 0.84375 0.8125 0.78125 0.75
          0.71875 0.6875 0.65625 0.625 0.59375 0.5625
          0.53125 0.5 0.46875 0.4375 0.40625 0.375
          0.34375 0.3125 0.28125 0.25 0.21875 0.1875
          0.15625 0.125 0.09375 0.0625 0.03125 0
          1 0.96875 0.9375 0.90625 0.875 0.84375
          0.8125 0.78125 0.75 0.71875 0.6875 0.65625
          0.625 0.59375 0.5625 0.53125 0.5 0.46875
          0.4375 0.40625 0.375 0.34375 0.3125 0.28125
          0.25 0.21875 0.1875 0.15625 0.125 0.09375
          0.0625 0.03125 0 1 0.96875 0.9375
          0.90625 0.875 0.84375 0.8125 0.78125 0.75
          0.71875 0.6875 0.65625 0.625 0.59375 0.5625
          0.53125 0.5 0.46875 0.4375 0.40625 0.375
          0.34375 0.3125 0.28125 0.25 0.21875 0.1875
          0.15625 0.125 0.09375 0.0625 0.03125 0
          1 0.96875 0.9375 0.90625 0.875 0.84375
          0.8125 0.78125 0.75 0.71875 0.6875 0.65625
          0.625 0.59375 0.5625 0.53125 0.5 0.46875
          0.4375 0.40625 0.375 0.34375 0.3125 0.28125
          0.25 0.21875 0.1875 0.15625 0.125 0.09375
          0.0625 0.03125 0 1 0.96875 0.9375
          0.90625 0.875 0.84375 0.8125 0.78125 0.75
          0.71875 0.6875 0.65625 0.625 0.59375 0.5625
          0.53125 0.5 0.46875 0.4375 0.40625 0.375
          0.34375 0.3125 0.28125 0.25 0.21875 0.1875
          0.15625 0.125 0.09375 0.0625 0.03125 0
          1 0.96875 0.9375 0.90625 0.875 0.84375
          0.8125 0.78125 0.75 0.71875 0.6875 0.65625
          0.625 0.59375 0.5625 0.53125 0.5 0.46875
          0.4375 0.40625 0.375 0.34375 0.3125 0.28125
          0.25 0.21875 0.1875 0.15625 0.125 0.09375
          0.0625 0.03125 0 1 0.96875 0.9375
          0.90625 0.875 0.84375 0.8125 0.78125 0.75
          0.71875 0.6875 0.65625 0.625 0.59375 0.5625
          0.53125 0.5 0.46875 0.4375 0.40625 0.375
          0.34375 0.3125 0.28125 0.25 0.21875 0.1875
          0.15625 0.125 0.09375 0.0625 0.03125 0
          1 0.96875 0.9375 0.90625 0.875 0.84375
          0.8125 0.78125 0.75 0.71875 0.6875 0.65625
          0.625 0.59375 0.5625 0.53125 0.5 0.46875
          0.4375 0.40625 0.375 0.34375 0.3125 0.28125
          0.25 0.21875 0.1875 0.15625 0.125 0.09375
          0.0625 0.03125 0 1 0.96875 0.9375
          0.90625 0.875 0.84375 0.8125 0.78125 0.75
          0.71875 0.6875 0.65625 0.625 0.59375 0.5625
          0.53125 0.5 0.46875 0.4375 0.40625 0.375
          0.34375 0.3125 0.28125 0.25 0.21875 0.1875
          0.15625 0.125 0.09375 0.0625 0.03125 0
          1 0.96875 0.9375 0.90625 0.875 0.84375
          0.8125 0.78125 0.75 0.71875 0.6875 0.65625
          0.625 0.59375 0.5625 0.53125 0.5 0.46875
          0.4375 0.40625 0.375 0.34375 0.3125 0.28125
          0.25 0.21875 0.1875 0.15625 0.125 0.09375
          0.0625 0.03125 0 1 0.96875 0.9375
          0.90625 0.875 0.84375 0.8125 0.78125 0.75
          0.71875 0.6875 0.65625 0.625 0.59375 0.5625
          0.53125 0.5 0.46875 0.4375 0.40625 0.375
          0.34375 0.3125 0.28125 0.25 0.21875 0.1875
          0.15625 0.125 0.09375 0.0625 0.03125 0
          1 0.96875 0.9375 0.90625 0.875 0.84375
          0.8125 0.78125 0.75 0.71875 0.6875 0.65625
          0.625 0.59375 0.5625 0.53125 0.5 0.46875
          0.4375 0.40625 0.375 0.34375 0.3125 0.28125
          0.25 0.21875 0.1875 0.15625 0.125 0.09375
          0.0625 0.03125 0 1 0.96875 0.9375
          0.90625 0.875 0.84375 0.8125 0.78125 0.75
          0.71875 0.6875 0.65625 0.625 0.59375 0.5625
          0.53125 0.5 0.46875 0.4375 0.40625 0.375
          0.34375 0.3125 0.28125 0.25 0.21875 0.1875
          0.15625 0.125 0.09375 0.0625 0.03125 0
          1 0.96875 0.9375 0.90625 0.875 0.84375
          0.8125 0.78125 0.75 0.71875 0.6875 0.65625
          0.625 0.59375 0.5625 0.53125 0.5 0.46875
          0.4375 0.40625 0.375 0.34375 0.3125 0.28125
          0.25 0.21875 0.1875 0.15625 0.125 0.09375
          0.0625 0.03125 0 1 0.96875 0.9375
          0.90625 0.875 0.84375 0.8125 0.78125 0.75
          0.71875 0.6875 0.65625 0.625 0.59375 0.5625
          0.53125 0.5 0.46875 0.4375 0.40625 0.375
          0.34375 0.3125 0.28125 0.25 0.21875 0.1875
          0.15625 0.125 0.09375 0.0625 0.03125 0
          1 0.96875 0.9375 0.90625 0.875 0.84375
          0.8125 0.78125 0.75 0.71875 0.6875 0.65625
          0.625 0.59375 0.5625 0.53125 0.5 0.46875
          0.4375 0.40625 0.375 0.34375 0.3125 0.28125
          0.25 0.21875 0.1875 0.15625 0.125 0.09375
          0.0625 0.03125 0 1 0.96875 0.9375
          0.90625 0.875 0.84375 0.8125 0.78125 0.75
          0.71875 0.6875 0.65625 0.625 0.59375 0.5625
          0.53125 0.5 0.46875 0.4375 0.40625 0.375
          0.34375 0.3125 0.28125 0.25 0.21875 0.1875
          0.15625 0.125 0.09375 0.0625 0.03125 0
          1 0.96875 0.9375 0.90625 0.875 0.84375
          0.8125 0.78125 0.75 0.71875 0.6875 0.65625
          0.625 0.59375 0.5625 0.53125 0.5 0.46875
          0.4375 0.40625 0.375 0.34375 0.3125 0.28125
          0.25 0.21875 0.1875 0.15625 0.125 0.09375
          0.0625 0.03125 0
        </DataArray>
        <DataArray type="Float64" Name="darcy_velocity" NumberOfComponents="2" format="ascii" RangeMin="0.0001239" RangeMax="0.0001239">
          0.0001239 4.7336542279e-19 0.0001239 4.0462975934e-19 0.0001239 -3.047572104e-20
          0.0001239 6.3599574866e-19 0.0001239 1.4525554827e-20 0.0001239 -2.4199943347e-19
          0.0001239 -7.1341880091e-19 0.0001239 -5.2952158676e-19 0.0001239 -1.4278804897e-19
          0.0001239 -3.1605181899e-19 0.0001239 -1.1036627259e-19 0.0001239 7.5998440865e-20
          0.0001239 -4.1720925882e-19 0.0001239 -1.9505210226e-19 0.0001239 5.8249794573e-19
          0.0001239 6.1472886038e-20 0.0001239 5.599973078e-19 0.0001239 -4.6415659003e-19
          0.0001239 2.8460307028e-19 0.0001239 1.1568299466e-19 0.0001239 3.2065623537e-19
          0.0001239 -2.6813146011e-19 0.0001239 -4.9605692246e-20 0.0001239 9.2435120914e-20
          0.0001239 -3.2234156873e-19 0.0001239 6.1342525049e-20 0.0001239 -4.9605692246e-21
          0.0001239 -1.5222267359e-19 0.0001239 5.0270282505e-20 0.0001239 -7.3987205028e-20
          0.0001239 1.4460374333e-20 0.0001239 7.0420996816e-20 0.0001239 -3.0613068054e-19
          0.0001239 4.7336542279e-19 0.0001239 3.8939189882e-19 0.0001239 -9.1948607078e-20
          0.0001239 4.2641809158e-19 0.0001239 4.7141936745e-19 0.0001239 -4.5520847926e-19
          0.0001239 -2.4491851648e-19 0.0001239 -1.5997196484e-19 0.0001239 -3.4367831726e-20
          0.0001239 -1.6794704794e-19 0.0001239 -2.081530457e-20 0.0001239 6.776263578e-20
          0.0001239 4.1649695313e-19 0.0001239 4.6804870072e-19 0.0001239 1.5270918742e-19
          0.0001239 2.5882719648e-19 0.0001239 5.0711637969e-19 0.0001239 2.7335275131e-19
          0.0001239 3.3190655433e-19 0.0001239 1.969981576e-19 0.0001239 1.7183915863e-20
          0.0001239 -1.9771046329e-19 0.0001239 -4.3315942504e-20 0.0001239 9.6778815313e-21
          0.0001239 -2.693477447e-19 0.0001239 1.241445916e-19 0.0001239 -5.1243310176e-20
          0.0001239 -1.8335019958e-20 0.0001239 1.0505594318e-19 0.0001239 -5.9681049401e-20
          0.0001239 -9.1369858703e-20 0.0001239 6.6645720097e-20 0.0001239 -3.0133625888e-19
          0.0001239 -7.9369107594e-20 0.0001239 2.4394548881e-19 0.0001239 1.6989310329e-19
          0.0001239 2.3207829502e-19 0.0001239 1.7520982536e-19 0.0001239 -3.8744584348e-19
          0.0001239 -3.2162926304e-19 0.0001239 1.6210888192e-20 0.0001239 -2.7105054312e-20
          0.0001239 -4.6947331211e-20 0.0001239 6.1472886038e-20 0.0001239 9.292163475e-20
          0.0001239 7.3618016083e-19 0.0001239 4.9878514374e-19 0.0001239 4.5449617356e-19