<?xml version="1.0"?>
<VTKFile type="UnstructuredGrid" version="0.1" byte_order="LittleEndian" header_type="UInt32">
  <UnstructuredGrid>
    <Piece NumberOfPoints="1089" NumberOfCells="1024">
      <PointData>
        <DataArray type="Float64" Name="concentration" format="ascii" RangeMin="-0.013533007275" RangeMax="1">
          1 0.54471090693 0.11278586945 -0.013533007275 -0.0041677632973 0.0012975888743
          -4.8783880512e-05 -5.9930735854e-05 1.9939384216e-05 -2.700403204e-06 -2.9409840316e-07 2.6733429184e-07
          -7.9612829267e-08 1.3477314866e-08 -2.50636404e-10 -7.4976814821e-10 3.1992614736e-10 -8.4213571488e-11
          1.4793389276e-11 -8.6704521534e-13 -5.8164850865e-13 3.085433257e-13 -9.7456242669e-14 2.3000332369e-14
          -3.8903355091e-15 2.4234481134e-16 1.45250091e-16 -8.1863811717e-17 2.7846586524e-17 -7.3976087873e-18
          1.5785340776e-18 -2.4432341834e-19 0 1 0.54471090693 0.11278586944
          -0.013533007275 -0.0041677632972 0.0012975888748 -4.8783880213e-05 -5.9930735931e-05 1.9939384195e-05
          -2.7004031901e-06 -2.9409840562e-07 2.6733429144e-07 -7.9612828898e-08 1.3477314753e-08 -2.5063638849e-10
          -7.4976814547e-10 3.1992614492e-10 -8.4213570636e-11 1.4793389089e-11 -8.6704519762e-13 -5.816485022e-13
          3.0854332137e-13 -9.7456241155e-14 2.300033199e-14 -3.890335446e-15 2.4234480995e-16 1.4525008693e-16
          -8.1863809668e-17 2.7846585845e-17 -7.3976086127e-18 1.5785340433e-18 -2.4432341433e-19 0
          1 0.54471090693 0.11278586944 -0.013533007274 -0.004167763297 0.0012975888754
          -4.8783879877e-05 -5.9930736016e-05 1.993938417e-05 -2.7004031745e-06 -2.9409840824e-07 2.6733429093e-07
          -7.961282847e-08 1.3477314628e-08 -2.5063637283e-10 -7.4976814172e-10 3.1992614203e-10 -8.4213569669e-11
          1.4793388887e-11 -8.6704518236e-13 -5.8164849348e-13 3.0854331619e-13 -9.7456239419e-14 2.3000331575e-14
          -3.8903353823e-15 2.4234481116e-16 1.4525008157e-16 -8.1863807205e-17 2.7846585064e-17 -7.3976084196e-18
          1.5785340078e-18 -2.4432341093e-19 0 1 0.54471090693 0.11278586944
          -0.013533007274 -0.0041677632969 0.0012975888755 -4.8783879794e-05 -5.9930736036e-05 1.9939384164e-05
          -2.7004031705e-06 -2.9409840884e-07 2.6733429077e-07 -7.9612828355e-08 1.3477314596e-08 -2.5063636968e-10
          -7.4976814045e-10 3.1992614123e-10 -8.4213569419e-11 1.479338884e-11 -8.6704518063e-13 -5.8164849057e-13
          3.0854331472e-13 -9.7456238961e-14 2.3000331474e-14 -3.8903353694e-15 2.4234481271e-16 1.4525007987e-16
          -8.1863806507e-17 2.7846584857e-17 -7.397608372e-18 1.5785340001e-18 -2.4432341055e-19 0
          1 0.54471090693 0.11278586944 -0.013533007274 -0.0041677632969 0.0012975888755
          -4.8783879792e-05 -5.9930736037e-05 1.9939384163e-05 -2.7004031703e-06 -2.9409840885e-07 2.6733429076e-07
          -7.961282835e-08 1.3477314595e-08 -2.5063636968e-10 -7.4976814035e-10 3.1992614118e-10 -8.4213569407e-11
          1.4793388838e-11 -8.6704518089e-13 -5.8164849034e-13 3.0854331463e-13 -9.7456238939e-14 2.300033147e-14
          -3.8903353693e-15 2.4234481296e-16 1.4525007975e-16 -8.1863806468e-17 2.7846584847e-17 -7.3976083701e-18
          1.5785339999e-18 -2.4432341059e-19 0 1 0.54471090693 0.11278586944
          -0.013533007274 -0.0041677632969 0.0012975888755 -4.8783879792e-05 -5.9930736037e-05 1.9939384163e-05
          -2.7004031703e-06 -2.9409840885e-07 2.6733429076e-07 -7.9612828349e-08 1.3477314595e-08 -2.5063636966e-10
          -7.4976814034e-10 3.1992614118e-10 -8.4213569406e-11 1.4793388838e-11 -8.670451809e-13 -5.8164849031e-13
          3.0854331462e-13 -9.7456238937e-14 2.300033147e-14 -3.8903353693e-15 2.4234481298e-16 1.4525007974e-16
          -8.1863806467e-17 2.7846584847e-17 -7.3976083701e-18 1.5785339999e-18 -2.4432341058e-19 0
          1 0.54471090693 0.11278586944 -0.013533007274 -0.0041677632969 0.0012975888755
          -4.8783879792e-05 -5.9930736037e-05 1.9939384163e-05 -2.7004031703e-06 -2.9409840885e-07 2.6733429075e-07
          -7.9612828349e-08 1.3477314595e-08 -2.5063636967e-10 -7.4976814033e-10 3.1992614118e-10 -8.4213569406e-11
          1.4793388838e-11 -8.6704518097e-13 -5.8164849029e-13 3.0854331462e-13 -9.7456238937e-14 2.300033147e-14
          -3.8903353695e-15 2.4234481304e-16 1.4525007973e-16 -8.1863806467e-17 2.7846584848e-17 -7.3976083705e-18
          1.578534e-18 -2.4432341059e-19 0 1 0.54471090693 0.11278586944
          -0.013533007274 -0.0041677632969 0.0012975888755 -4.8783879792e-05 -5.9930736037e-05 1.9939384163e-05
          -2.7004031703e-06 -2.9409840886e-07 2.6733429075e-07 -7.9612828349e-08 1.3477314595e-08 -2.5063636966e-10
          -7.4976814033e-10 3.1992614118e-10 -8.4213569405e-11 1.4793388838e-11 -8.6704518099e-13 -5.8164849028e-13
          3.0854331461e-13 -9.7456238937e-14 2.300033147e-14 -3.8903353696e-15 2.4234481308e-16 1.4525007972e-16
          -8.1863806467e-17 2.7846584849e-17 -7.3976083708e-18 1.5785340001e-18 -2.4432341061e-19 0
          1 0.54471090693 0.11278586945 -0.013533007274 -0.0041677632969 0.0012975888755
          -4.8783879789e-05 -5.9930736037e-05 1.9939384163e-05 -2.7004031703e-06 -2.9409840887e-07 2.6733429076e-07
          -7.9612828348e-08 1.3477314594e-08 -2.5063636961e-10 -7.4976814034e-10 3.1992614117e-10 -8.4213569404e-11
          1.4793388838e-11 -8.6704518097e-13 -5.8164849027e-13 3.0854331461e-13 -9.7456238936e-14 2.300033147e-14
          -3.8903353697e-15 2.423448131e-16 1.4525007972e-16 -8.1863806467e-17 2.7846584849e-17 -7.3976083711e-18
          1.5785340002e-18 -2.4432341062e-19 0 1 0.54471090693 0.11278586945
          -0.013533007274 -0.004167763297 0.0012975888755 -4.8783879786e-05 -5.9930736038e-05 1.9939384163e-05
          -2.7004031702e-06 -2.9409840888e-07 2.6733429076e-07 -7.9612828348e-08 1.3477314594e-08 -2.5063636953e-10
          -7.4976814035e-10 3.1992614117e-10 -8.4213569403e-11 1.4793388838e-11 -8.6704518089e-13 -5.8164849028e-13
          3.0854331461e-13 -9.7456238935e-14 2.300033147e-14 -3.8903353697e-15 2.4234481312e-16 1.4525007971e-16
          -8.1863806467e-17 2.7846584849e-17 -7.3976083712e-18 1.5785340002e-18 -2.4432341063e-19 0
          1 0.54471090693 0.11278586945 -0.013533007274 -0.004167763297 0.0012975888755
          -4.8783879782e-05 -5.9930736039e-05 1.9939384163e-05 -2.7004031701e-06 -2.940984089e-07 2.6733429076e-07
          -7.9612828347e-08 1.3477314594e-08 -2.5063636943e-10 -7.4976814036e-10 3.1992614117e-10 -8.4213569402e-11
          1.4793388837e-11 -8.6704518079e-13 -5.8164849029e-13 3.0854331461e-13 -9.7456238934e-14 2.300033147e-14
          -3.8903353696e-15 2.4234481311e-16 1.4525007971e-16 -8.1863806466e-17 2.784658485e-17 -7.3976083713e-18
          1.5785340002e-18 -2.4432341064e-19 0 1 0.54471090693 0.11278586945
          -0.013533007273 -0.0041677632971 0.0012975888755 -4.8783879779e-05 -5.993073604e-05 1.9939384163e-05
          -2.7004031701e-06 -2.9409840892e-07 2.6733429076e-07 -7.9612828347e-08 1.3477314594e-08 -2.5063636933e-10
          -7.4976814038e-10 3.1992614117e-10 -8.4213569401e-11 1.4793388837e-11 -8.6704518068e-13 -5.8164849031e-13
          3.0854331461e-13 -9.7456238933e-14 2.3000331469e-14 -3.8903353695e-15 2.423448131e-16 1.4525007971e-16
          -8.1863806466e-17 2.784658485e-17 -7.3976083714e-18 1.5785340003e-18 -2.4432341064e-19 0
          1 0.54471090693 0.11278586945 -0.013533007273 -0.0041677632971 0.0012975888755
          -4.8783879776e-05 -5.9930736041e-05 1.9939384163e-05 -2.70040317e-06 -2.9409840894e-07 2.6733429077e-07
          -7.9612828347e-08 1.3477314593e-08 -2.5063636923e-10 -7.497681404e-10 3.1992614117e-10 -8.42135694e-11
          1.4793388836e-11 -8.6704518057e-13 -5.8164849033e-13 3.0854331461e-13 -9.7456238932e-14 2.3000331469e-14
          -3.8903353694e-15 2.4234481308e-16 1.4525007971e-16 -8.1863806466e-17 2.784658485e-17 -7.3976083714e-18
          1.5785340003e-18 -2.4432341064e-19 0 1 0.54471090693 0.11278586945
          -0.013533007273 -0.0041677632971 0.0012975888755 -4.8783879773e-05 -5.9930736041e-05 1.9939384163e-05
          -2.70040317e-06 -2.9409840896e-07 2.6733429077e-07 -7.9612828347e-08 1.3477314593e-08 -2.5063636914e-10
          -7.4976814042e-10 3.1992614118e-10 -8.42135694e-11 1.4793388836e-11 -8.6704518047e-13 -5.8164849034e-13
          3.0854331461e-13 -9.7456238931e-14 2.3000331469e-14 -3.8903353693e-15 2.4234481306e-16 1.4525007972e-16
          -8.1863806466e-17 2.784658485e-17 -7.3976083714e-18 1.5785340003e-18 -2.4432341064e-19 0
          1 0.54471090693 0.11278586945 -0.013533007273 -0.0041677632972 0.0012975888755
          -4.8783879771e-05 -5.9930736042e-05 1.9939384163e-05 -2.7004031699e-06 -2.9409840898e-07 2.6733429077e-07
          -7.9612828347e-08 1.3477314593e-08 -2.5063636907e-10 -7.4976814043e-10 3.1992614118e-10 -8.4213569399e-11
          1.4793388836e-11 -8.6704518039e-13 -5.8164849036e-13 3.0854331461e-13 -9.7456238931e-14 2.3000331468e-14
          -3.8903353693e-15 2.4234481305e-16 1.4525007972e-16 -8.1863806467e-17 2.784658485e-17 -7.3976083714e-18
          1.5785340003e-18 -2.4432341064e-19 0 1 0.54471090693 0.11278586945
          -0.013533007273 -0.0041677632972 0.0012975888755 -4.8783879769e-05 -5.9930736042e-05 1.9939384163e-05
          -2.7004031699e-06 -2.9409840899e-07 2.6733429077e-07 -7.9612828346e-08 1.3477314593e-08 -2.50636369e-10
          -7.4976814045e-10 3.1992614118e-10 -8.4213569398e-11 1.4793388835e-11 -8.670451803e-13 -5.8164849038e-13
          3.0854331461e-13 -9.7456238931e-14 2.3000331468e-14 -3.8903353692e-15 2.4234481303e-16 1.4525007972e-16
          -8.1863806467e-17 2.784658485e-17 -7.3976083714e-18 1.5785340003e-18 -2.4432341064e-19 0
          1 0.54471090693 0.11278586945 -0.013533007273 -0.0041677632972 0.0012975888755
          -4.8783879767e-05 -5.9930736043e-05 1.9939384163e-05 -2.7004031699e-06 -2.94098409e-07 2.6733429078e-07
          -7.9612828347e-08 1.3477314592e-08 -2.5063636894e-10 -7.4976814046e-10 3.1992614118e-10 -8.4213569398e-11
          1.4793388835e-11 -8.6704518022e-13 -5.8164849039e-13 3.0854331461e-13 -9.745623893e-14 2.3000331468e-14
          -3.8903353691e-15 2.4234481301e-16 1.4525007972e-16 -8.1863806467e-17 2.784658485e-17 -7.3976083714e-18
          1.5785340003e-18 -2.4432341064e-19 0 1 0.54471090693 0.11278586945
          -0.013533007273 -0.0041677632972 0.0012975888755 -4.8783879766e-05 -5.9930736043e-05 1.9939384163e-05
          -2.7004031699e-06 -2.94098409e-07 2.6733429078e-07 -7.9612828347e-08 1.3477314592e-08 -2.5063636887e-10
          -7.4976814047e-10 3.1992614118e-10 -8.4213569398e-11 1.4793388835e-11 -8.6704518014e-13 -5.8164849041e-13
          3.0854331461e-13 -9.745623893e-14 2.3000331468e-14 -3.890335369e-15 2.42344813e-16 1.4525007973e-16
          -8.1863806467e-17 2.7846584849e-17 -7.3976083713e-18 1.5785340003e-18 -2.4432341064e-19 0
          1 0.54471090693 0.11278586945 -0.013533007273 -0.0041677632973 0.0012975888755
          -4.8783879765e-05 -5.9930736044e-05 1.9939384163e-05 -2.7004031698e-06 -2.9409840901e-07 2.6733429078e-07
          -7.9612828347e-08 1.3477314592e-08 -2.5063636881e-10 -7.4976814049e-10 3.1992614118e-10 -8.4213569398e-11
          1.4793388835e-11 -8.6704518006e-13 -5.8164849042e-13 3.0854331461e-13 -9.7456238929e-14 2.3000331467e-14
          -3.890335369e-15 2.4234481298e-16 1.4525007973e-16 -8.1863806467e-17 2.7846584849e-17 -7.3976083713e-18
          1.5785340003e-18 -2.4432341064e-19 0 1 0.54471090694 0.11278586945
          -0.013533007273 -0.0041677632973 0.0012975888755 -4.8783879764e-05 -5.9930736044e-05 1.9939384163e-05
          -2.7004031698e-06 -2.9409840902e-07 2.6733429078e-07 -7.9612828347e-08 1.3477314592e-08 -2.5063636879e-10
          -7.4976814051e-10 3.1992614118e-10 -8.4213569397e-11 1.4793388835e-11 -8.6704517999e-13 -5.8164849044e-13
          3.0854331462e-13 -9.7456238929e-14 2.3000331467e-14 -3.8903353689e-15 2.4234481297e-16 1.4525007973e-16
          -8.1863806467e-17 2.7846584849e-17 -7.3976083712e-18 1.5785340002e-18 -2.4432341064e-19 0
          1 0.54471090694 0.11278586945 -0.013533007273 -0.0041677632973 0.0012975888755
          -4.8783879763e-05 -5.9930736044e-05 1.9939384163e-05 -2.7004031698e-06 -2.9409840902e-07 2.6733429078e-07
          -7.9612828347e-08 1.3477314592e-08 -2.506363688e-10 -7.4976814052e-10 3.1992614119e-10 -8.4213569397e-11
          1.4793388834e-11 -8.6704517994e-13 -5.8164849045e-13 3.0854331462e-13 -9.7456238929e-14 2.3000331467e-14
          -3.8903353688e-15 2.4234481295e-16 1.4525007973e-16 -8.1863806467e-17 2.7846584849e-17 -7.3976083711e-18
          1.5785340002e-18 -2.4432341063e-19 0 1 0.54471090694 0.11278586945
          -0.013533007273 -0.0041677632973 0.0012975888755 -4.8783879762e-05 -5.9930736044e-05 1.9939384163e-05
          -2.7004031698e-06 -2.9409840903e-07 2.6733429078e-07 -7.9612828347e-08 1.3477314592e-08 -2.5063636879e-10
          -7.4976814052e-10 3.1992614119e-10 -8.4213569397e-11 1.4793388834e-11 -8.6704517992e-13 -5.8164849046e-13
          3.0854331462e-13 -9.7456238929e-14 2.3000331467e-14 -3.8903353687e-15 2.4234481293e-16 1.4525007974e-16
          -8.1863806467e-17 2.7846584849e-17 -7.3976083711e-18 1.5785340002e-18 -2.4432341063e-19 0
          1 0.54471090694 0.11278586945 -0.013533007273 -0.0041677632973 0.0012975888755
          -4.8783879762e-05 -5.9930736044e-05 1.9939384163e-05 -2.7004031698e-06 -2.9409840903e-07 2.6733429078e-07
          -7.9612828347e-08 1.3477314592e-08 -2.5063636876e-10 -7.4976814051e-10 3.1992614119e-10 -8.4213569398e-11
          1.4793388834e-11 -8.6704517989e-13 -5.8164849047e-13 3.0854331462e-13 -9.7456238929e-14 2.3000331467e-14
          -3.8903353687e-15 2.4234481291e-16 1.4525007974e-16 -8.1863806467e-17 2.7846584849e-17 -7.397608371e-18
          1.5785340002e-18 -2.4432341062e-19 0 1 0.54471090694 0.11278586945
          -0.013533007273 -0.0041677632973 0.0012975888755 -4.8783879761e-05 -5.9930736044e-05 1.9939384163e-05
          -2.7004031698e-06 -2.9409840903e-07 2.6733429078e-07 -7.9612828347e-08 1.3477314592e-08 -2.5063636874e-10
          -7.4976814052e-10 3.1992614119e-10 -8.4213569398e-11 1.4793388834e-11 -8.6704517986e-13 -5.8164849047e-13
          3.0854331462e-13 -9.7456238929e-14 2.3000331467e-14 -3.8903353686e-15 2.4234481289e-16 1.4525007974e-16
          -8.1863806467e-17 2.7846584848e-17 -7.3976083709e-18 1.5785340001e-18 -2.4432341062e-19 0
          1 0.54471090694 0.11278586945 -0.013533007273 -0.0041677632973 0.0012975888755
          -4.8783879761e-05 -5.9930736044e-05 1.9939384163e-05 -2.7004031698e-06 -2.9409840903e-07 2.6733429078e-07
          -7.9612828347e-08 1.3477314592e-08 -2.5063636874e-10 -7.4976814052e-10 3.1992614119e-10 -8.4213569398e-11
          1.4793388834e-11 -8.6704517986e-13 -5.8164849048e-13 3.0854331463e-13 -9.745623893e-14 2.3000331467e-14
          -3.8903353687e-15 2.4234481289e-16 1.4525007975e-16 -8.1863806469e-17 2.7846584849e-17 -7.3976083709e-18
          1.5785340001e-18 -2.4432341062e-19 0 1 0.54471090694 0.11278586945
          -0.013533007273 -0.0041677632973 0.0012975888755 -4.8783879761e-05 -5.9930736044e-05 1.9939384163e-05
          -2.7004031698e-06 -2.9409840904e-07 2.6733429078e-07 -7.9612828347e-08 1.3477314592e-08 -2.5063636873e-10
          -7.4976814051e-10 3.1992614119e-10 -8.4213569397e-11 1.4793388834e-11 -8.6704517989e-13 -5.8164849047e-13
          3.0854331462e-13 -9.7456238929e-14 2.3000331467e-14 -3.8903353687e-15 2.423448129e-16 1.4525007974e-16
          -8.1863806467e-17 2.7846584848e-17 -7.3976083708e-18 1.5785340001e-18 -2.4432341061e-19 0
          1 0.54471090694 0.11278586945 -0.013533007273 -0.0041677632973 0.0012975888755
          -4.8783879761e-05 -5.9930736044e-05 1.9939384163e-05 -2.7004031698e-06 -2.9409840904e-07 2.6733429078e-07
          -7.9612828347e-08 1.3477314592e-08 -2.5063636871e-10 -7.4976814053e-10 3.1992614119e-10 -8.4213569398e-11
          1.4793388834e-11 -8.6704517983e-13 -5.816484905e-13 3.0854331463e-13 -9.745623893e-14 2.3000331467e-14
          -3.8903353685e-15 2.4234481284e-16 1.4525007976e-16 -8.1863806471e-17 2.7846584849e-17 -7.3976083708e-18
          1.5785340001e-18 -2.4432341059e-19 0 1 0.54471090694 0.11278586945
          -0.013533007273 -0.0041677632973 0.0012975888755 -4.8783879764e-05 -5.9930736044e-05 1.9939384163e-05
          -2.7004031699e-06 -2.9409840901e-07 2.6733429078e-07 -7.9612828349e-08 1.3477314593e-08 -2.5063636895e-10
          -7.4976814051e-10 3.199261412e-10 -8.4213569405e-11 1.4793388836e-11 -8.6704518026e-13 -5.8164849047e-13
          3.0854331465e-13 -9.7456238942e-14 2.3000331471e-14 -3.8903353695e-15 2.4234481302e-16 1.4525007975e-16
          -8.1863806481e-17 2.7846584854e-17 -7.3976083726e-18 1.5785340006e-18 -2.4432341069e-19 0
          1 0.54471090694 0.11278586945 -0.013533007273 -0.0041677632973 0.0012975888756
          -4.8783879747e-05 -5.9930736048e-05 1.9939384162e-05 -2.7004031691e-06 -2.9409840915e-07 2.6733429076e-07
          -7.9612828329e-08 1.3477314586e-08 -2.5063636795e-10 -7.4976814039e-10 3.1992614107e-10 -8.4213569356e-11
          1.4793388825e-11 -8.6704517891e-13 -5.8164849018e-13 3.0854331442e-13 -9.7456238855e-14 2.3000331448e-14
          -3.8903353653e-15 2.4234481276e-16 1.4525007956e-16 -8.1863806369e-17 2.7846584815e-17 -7.397608362e-18
          1.5785339983e-18 -2.4432341038e-19 0 1 0.54471090694 0.11278586945
          -0.013533007273 -0.0041677632973 0.0012975888755 -4.8783879808e-05 -5.9930736034e-05 1.9939384167e-05
          -2.7004031718e-06 -2.9409840872e-07 2.6733429086e-07 -7.9612828404e-08 1.3477314608e-08 -2.5063637039e-10
          -7.4976814112e-10 3.1992614158e-10 -8.4213569521e-11 1.4793388858e-11 -8.6704518081e-13 -5.8164849189e-13
          3.0854331534e-13 -9.7456239154e-14 2.3000331516e-14 -3.8903353749e-15 2.4234481209e-16 1.4525008059e-16
          -8.1863806812e-17 2.784658495e-17 -7.397608394e-18 1.5785340038e-18 -2.4432341075e-19 0
          1 0.54471090694 0.11278586945 -0.013533007273 -0.0041677632973 0.0012975888755
          -4.8783879783e-05 -5.9930736034e-05 1.9939384163e-05 -2.700403171e-06 -2.940984086e-07 2.6733429073e-07
          -7.9612828366e-08 1.3477314605e-08 -2.506363727e-10 -7.497681399e-10 3.1992614125e-10 -8.4213569476e-11
          1.4793388866e-11 -8.6704518813e-13 -5.8164848916e-13 3.0854331466e-13 -9.7456239052e-14 2.3000331522e-14
          -3.8903353858e-15 2.4234481686e-16 1.4525007915e-16 -8.1863806484e-17 2.7846584902e-17 -7.3976083959e-18
          1.5785340083e-18 -2.4432341267e-19 0 1 0.54471090694 0.11278586945
          -0.013533007272 -0.0041677632973 0.0012975888769 -4.8783878919e-05 -5.9930736255e-05 1.9939384103e-05
          -2.7004031314e-06 -2.9409841557e-07 2.6733428957e-07 -7.961282731e-08 1.3477314285e-08 -2.5063632942e-10
          -7.4976813182e-10 3.1992613426e-10 -8.4213567056e-11 1.479338834e-11 -8.670451403e-13 -5.8164847015e-13
          3.0854330224e-13 -9.7456234751e-14 2.3000330459e-14 -3.8903352116e-15 2.4234481454e-16 1.4525006719e-16
          -8.186380061e-17 2.7846582977e-17 -7.3976079058e-18 1.5785339137e-18 -2.4432340201e-19 0
          1 0.54471090693 0.11278586945 -0.013533007272 -0.0041677632972 0.0012975888777
          -4.8783878458e-05 -5.993073637e-05 1.9939384069e-05 -2.70040311e-06 -2.9409841916e-07 2.6733428888e-07
          -7.9612826727e-08 1.3477314113e-08 -2.5063630783e-10 -7.4976812677e-10 3.1992613033e-10 -8.4213565736e-11
          1.4793388063e-11 -8.6704511894e-13 -5.816484584e-13 3.085432952e-13 -9.7456232384e-14 2.3000329891e-14
          -3.8903351239e-15 2.4234481594e-16 1.4525005996e-16 -8.1863797265e-17 2.7846581914e-17 -7.3976076424e-18
          1.578533865e-18 -2.4432339729e-19 0
        </DataArray>
        <DataArray type="Float64" Name="pressure" format="ascii" RangeMin="0" RangeMax="1">
          1 0.96875 0.9375 0.90625 0.875 0.84375
          0.8125 0.78125 0.75 0.71875 0.6875 0.65625
          0.625 0.59375 0.5625 0.53125 0.5 0.46875
          0.4375 0.40625 0.375 0.34375 0.3125 0.28125
          0.25 0.21875 0.1875 0.15625 0.125 0.09375
          0.0625 0.03125 0 1 0.96875 0.9375
          0.90625 0.875 0.84375 0.8125 0.78125 0.75
          0.71875 0.6875 0.65625 0.625 0.59375 0.5625
          0.53125 0.5 0.46875 0.4375 0.40625 0.375
          0.34375 0.3125 0.28125 0.25 0.21875 0.1875
          0.15625 0.125 0.09375 0.0625 0.03125 0
          1 0.96875 0.9375 0.90625 0.875 0.84375
          0.8125 0.78125 0.75 0.71875 0.6875 0.65625
          0.625 0.59375 0.5625 0.53125 0.5 0.46875
          0.4375 0.40625 0.375 0.34375 0.3125 0.28125
          0.25 0.21875 0.1875 0.15625 0.125 0.09375
          0.0625 0.03125 0 1 0.96875 0.9375
          0.90625 0.875 0.84375 0.8125 0.78125 0.75
          0.71875 0.6875 0.65625 0.625 0.59375 0.5625
          0.53125 0.5 0.46875 0.4375 0.40625 0.375
          0.34375 0.3125 0.28125 0.25 0.21875 0.1875
          0.15625 0.125 0.09375 0.0625 0.03125 0
          1 0.96875 0.9375 0.90625 0.875 0.84375
          0.8125 0.78125 0.75 0.71875 0.6875 0.65625
          0.625 0.59375 0.5625 0.53125 0.5 0.46875
          0.4375 0.40625 0.375 0.34375 0.3125 0.28125
          0.25 0.21875 0.1875 0.15625 0.125 0.09375
          0.0625 0.03125 0 1 0.96875 0.9375
          0.90625 0.875 0.84375 0.8125 0.78125 0.75
          0.71875 0.6875 0.65625 0.625 0.59375 0.5625
          0.53125 0.5 0.46875 0.4375 0.40625 0.375
          0.34375 0.3125 0.28125 0.25 0.21875 0.1875
          0.15625 0.125 0.09375 0.0625 0.03125 0
          1 0.96875 0.9375 0.90625 0.875 0.84375
          0.8125 0.78125 0.75 0.71875 0.6875 0.65625
          0.625 0.59375 0.5625 0.53125 0.5 0.46875
          0.4375 0.40625 0.375 0.34375 0.3125 0.28125
          0.25 0.21875 0.1875 0.15625 0.125 0.09375
          0.0625 0.03125 0 1 0.96875 0.9375
          0.90625 0.875 0.84375 0.8125 0.78125 0.75
          0.71875 0.6875 0.65625 0.625 0.59375 0.5625
          0.53125 0.5 0.46875 0.4375 0.40625 0.375
          0.34375 0.3125 0.28125 0.25 0.21875 0.1875
          0.15625 0.125 0.09375 0.0625 0.03125 0
          1 0.96875 0.9375 0.90625 0.875 0.84375
          0.8125 0.78125 0.75 0.71875 0.6875 0.65625
          0.625 0.59375 0.5625 0.53125 0.5 0.46875
          0.4375 0.40625 0.375 0.34375 0.3125 0.28125
          0.25 0.21875 0.1875 0.15625 0.125 0.09375
          0.0625 0.03125 0 1 0.96875 0.9375
          0.90625 0.875 0.84375 0.8125 0.78125 0.75
          0.71875 0.6875 0.65625 0.625 0.59375 0.5625
          0.53125 0.5 0.46875 0.4375 0.40625 0.375
          0.34375 0.3125 0.28125 0.25 0.21875 0.1875
          0.15625 0.125 0.09375 0.0625 0.03125 0
          1 0.96875 0.9375 0.90625 0.875 0.84375
          0.8125 0.78125 0.75 0.71875 0.6875 0.65625
          0.625 0.59375 0.5625 0.53125 0.5 0.46875
          0.4375 0.40625 0.375 0.34375 0.3125 0.28125
          0.25 0.21875 0.1875 0.15625 0.125 0.09375
          0.0625 0.03125 0 1 0.96875 0.9375
          0.90625 0.875 0.84375 0.8125 0.78125 0.75
          0.71875 0.6875 0.65625 0.625 0.59375 0.5625
          0.53125 0.5 0.46875 0.4375 0.40625 0.375
          0.34375 0.3125 0.28125 0.25 0.21875 0.1875
          0.15625 0.125 0.09375 0.0625 0.03125 0
          1 0.96875 0.9375 0.90625 0.875 0.84375
          0.8125 0.78125 0.75 0.71875 0.6875 0.65625
          0.625 0.59375 0.5625 0.53125 0.5 0.46875
          0.4375 0.40625 0.375 0.34375 0.3125 0.28125
          0.25 0.21875 0.1875 0.15625 0.125 0.09375
          0.0625 0.03125 0 1 0.96875 0.9375
          0.90625 0.875 0.84375 0.8125 0.78125 0.75
          0.71875 0.6875 0.65625 0.625 0.59375 0.5625
          0.53125 0.5 0.46875 0.4375 0.40625 0.375
          0.34375 0.3125 0.28125 0.25 0.21875 0.1875
          0.15625 0.125 0.09375 0.0625 0.03125 0
          1 0.96875 0.9375 0.90625 0.875 0.84375
          0.8125 0.78125 0.75 0.71875 0.6875 0.65625
          0.625 0.59375 0.5625 0.53125 0.5 0.46875
          0.4375 0.40625 0.375 0.34375 0.3125 0.28125
          0.25 0.21875 0.1875 0.15625 0.125 0.09375
          0.0625 0.03125 0 1 0.96875 0.9375
          0.90625 0.875 0.84375 0.8125 0.78125 0.75
          0.71875 0.6875 0.65625 0.625 0.59375 0.5625
          0.53125 0.5 0.46875 0.4375 0.40625 0.375
          0.34375 0.3125 0.28125 0.25 0.21875 0.1875
          0.15625 0.125 0.09375 0.0625 0.03125 0
          1 0.96875 0.9375 0.90625 0.875 0.84375
          0.8125 0.78125 0.75 0.71875 0.6875 0.65625
          0.625 0.59375 0.5625 0.53125 0.5 0.46875
          0.4375 0.40625 0.375 0.34375 0.3125 0.28125
          0.25 0.21875 0.1875 0.15625 0.125 0.09375
          0.0625 0.03125 0 1 0.96875 0.9375
          0.90625 0.875 0.84375 0.8125 0.78125 0.75
          0.71875 0.6875 0.65625 0.625 0.59375 0.5625
          0.53125 0.5 0.46875 0.4375 0.40625 0.375
          0.34375 0.3125 0.28125 0.25 0.21875 0.1875
          0.15625 0.125 0.09375 0.0625 0.03125 0
          1 0.96875 0.9375 0.90625 0.875 0.84375
          0.8125 0.78125 0.75 0.71875 0.6875 0.65625
          0.625 0.59375 0.5625 0.53125 0.5 0.46875
          0.4375 0.40625 0.375 0.34375 0.3125 0.28125
          0.25 0.21875 0.1875 0.15625 0.125 0.09375
          0.0625 0.03125 0 1 0.96875 0.9375
          0.90625 0.875 0.84375 0.8125 0.78125 0.75
          0.71875 0.6875 0.65625 0.625 0.59375 0.5625
          0.53125 0.5 0.46875 0.4375 0.40625 0.375
          0.34375 0.3125 0.28125 0.25 0.21875 0.1875
          0.15625 0.125 0.09375 0.0625 0.03125 0
          1 0.96875 0.9375 0.90625 0.875 0.84375
          0.8125 0.78125 0.75 0.71875 0.6875 0.65625
          0.625 0.59375 0.5625 0.53125 0.5 0.46875
          0.4375 0.40625 0.375 0.34375 0.3125 0.28125
          0.25 0.21875 0.1875 0.15625 0.125 0.09375
          0.0625 0.03125 0 1 0.96875 0.9375
          0.90625 0.875 0.84375 0.8125 0.78125 0.75
          0.71875 0.6875 0.65625 0.625 0.59375 0.5625
          0.53125 0.5 0.46875 0.4375 0.40625 0.375
          0.34375 0.3125 0.28125 0.25 0.21875 0.1875
          0.15625 0.125 0.09375 0.0625 0.03125 0
          1 0.96875 0.9375 0.90625 0.875 0.84375
          0.8125 0.78125 0.75 0.71875 0.6875 0.65625
          0.625 0.59375 0.5625 0.53125 0.5 0.46875
          0.4375 0.40625 0.375 0.34375 0.3125 0.28125
          0.25 0.21875 0.1875 0.15625 0.125 0.09375
          0.0625 0.03125 0 1 0.96875 0.9375
          0.90625 0.875 0.84375 0.8125 0.78125 0.75
          0.71875 0.6875 0.65625 0.625 0.59375 0.5625
          0.53125 0.5 0.46875 0.4375 0.40625 0.375
          0.34375 0.3125 0.28125 0.25 0.21875 0.1875
          0.15625 0.125 0.09375 0.0625 0.03125 0
          1 0.96875 0.9375 0.90625 0.875 0.84375
          0.8125 0.78125 0.75 0.71875 0.6875 0.65625
          0.625 0.59375 0.5625 0.53125 0.5 0.46875
          0.4375 0.40625 0.375 0.34375 0.3125 0.28125
          0.25 0.21875 0.1875 0.15625 0.125 0.09375
          0.0625 0.03125 0 1 0.96875 0.9375
          0.90625 0.875 0.84375 0.8125 0.78125 0.75
          0.71875 0.6875 0.65625 0.625 0.59375 0.5625
          0.53125 0.5 0.46875 0.4375 0.40625 0.375
          0.34375 0.3125 0.28125 0.25 0.21875 0.1875
          0.15625 0.125 0.09375 0.0625 0.03125 0
          1 0.96875 0.9375 0.90625 0.875 0.84375
          0.8125 0.78125 0.75 0.71875 0.6875 0.65625
          0.625 0.59375 0.5625 0.53125 0.5 0.46875
          0.4375 0.40625 0.375 0.34375 0.3125 0.28125
          0.25 0.21875 0.1875 0.15625 0.125 0.09375
          0.0625 0.03125 0 1 0.96875 0.9375
          0.90625 0.875 0.84375 0.8125 0.78125 0.75
          0.71875 0.6875 0.65625 0.625 0.59375 0.5625
          0.53125 0.5 0.46875 0.4375 0.40625 0.375
          0.34375 0.3125 0.28125 0.25 0.21875 0.1875
          0.15625 0.125 0.09375 0.0625 0.03125 0
          1 0.96875 0.9375 0.90625 0.875 0.84375
          0.8125 0.78125 0.75 0.71875 0.6875 0.65625
          0.625 0.59375 0.5625 0.53125 0.5 0.46875
          0.4375 0.40625 0.375 0.34375 0.3125 0.28125
          0.25 0.21875 0.1875 0.15625 0.125 0.09375
          0.0625 0.03125 0 1 0.96875 0.9375
          0.90625 0.875 0.84375 0.8125 0.78125 0.75
          0.71875 0.6875 0.65625 0.625 0.59375 0.5625
          0.53125 0.5 0.46875 0.4375 0.40625 0.375
          0.34375 0.3125 0.28125 0.25 0.21875 0.1875
          0.15625 0.125 0.09375 0.0625 0.03125 0
          1 0.96875 0.9375 0.90625 0.875 0.84375
          0.8125 0.78125 0.75 0.71875 0.6875 0.65625
          0.625 0.59375 0.5625 0.53125 0.5 0.46875
          0.4375 0.40625 0.375 0.34375 0.3125 0.28125
          0.25 0.21875 0.1875 0.15625 0.125 0.09375
          0.0625 0.03125 0 1 0.96875 0.9375
          0.90625 0.875 0.84375 0.8125 0.78125 0.75
          0.71875 0.6875 0.65625 0.625 0.59375 0.5625
          0.53125 0.5 0.46875 0.4375 0.40625 0.375
          0.34375 0.3125 0.28125 0.25 0.21875 0.1875
          0.15625 0.125 0.09375 0.0625 0.03125 0
          1 0.96875 0.9375 0.90625 0.875 0.84375
          0.8125 0.78125 0.75 0.71875 0.6875 0.65625
          0.625 0.59375 0.5625 0.53125 0.5 0.46875
          0.4375 0.40625 0.375 0.34375 0.3125 0.28125
          0.25 0.21875 0.1875 0.15625 0.125 0.09375
          0.0625 0.03125 0
        </DataArray>
        <DataArray type="Float64" Name="darcy_velocity" NumberOfComponents="2" format="ascii" RangeMin="0.0001239" RangeMax="0.0001239">
          0.0001239 -1.1905366139e-19 0.0001239 4.8399886693e-19 0.0001239 3.0997164998e-20
          0.0001239 1.1179088398e-19 0.0001239 -3.4510292864e-19 0.0001239 -6.7373424712e-19
          0.0001239 1.6794704794e-19 0.0001239 -1.3552527156e-19 0.0001239 -1.4525554827e-20
          0.0001239 -5.7789352935e-19 0.0001239 5.0189508849e-19 0.0001239 -1.8389721416e-19
          0.0001239 2.9620954209e-19 0.0001239 2.168404345e-19 0.0001239 4.4626036848e-19
          0.0001239 3.4439062295e-19 0.0001239 1.0585217296e-18 0.0001239 1.0213046751e-19