<?xml version="1.0"?>
<VTKFile type="UnstructuredGrid" version="0.1" byte_order="LittleEndian" header_type="UInt32">
  <UnstructuredGrid>
    <Piece NumberOfPoints="1089" NumberOfCells="1024">
      <PointData>
        <DataArray type="Float64" Name="concentration" format="ascii" RangeMin="-7.5756955127e-06" RangeMax="1">
          1 0.8290605371 0.6937144198 0.58601330537 0.49201525635 0.40789611991
          0.33234937866 0.26493333774 0.20556247792 0.15428839852 0.11116853908 0.076160254866
          0.049019639149 0.029207271347 0.015826197047 0.00763914283 0.003208250806 0.0011407109598
          0.00033164368311 7.4870754126e-05 1.1937606762e-05 1.0453838493e-06 -1.110498866e-08 -8.8533161887e-09
          4.8289023201e-10 7.9281398104e-11 -1.8103762111e-11 1.4996457193e-12 9.5883519948e-14 -6.0437785172e-14
          1.3661045931e-14 -2.245080259e-15 0 1 0.75774846767 0.65205621314
          0.55562387826 0.46764878212 0.38762511619 0.31532232605 0.25071764487 0.19390130009
          0.14499132974 0.10405099557 0.071003465286 0.045546217973 0.027078354093 0.014667589176
          0.0070934608577 0.0029910187603 0.0010689964611 0.00031235583234 7.0772314863e-05 1.1299765004e-05
          9.8704182905e-07 -1.122890175e-08 -8.3845937247e-09 4.6852353572e-10 7.4103917318e-11 -1.7241656943e-11
          1.4614094963e-12 8.4161042889e-14 -5.6785079389e-14 1.304221083e-14 -2.1618228893e-15 0
          1 0.74765533571 0.61085106726 0.50712706073 0.42060733581 0.34539139726
          0.27908665957 0.22069246387 0.16981887499 0.12633579521 0.090172729766 0.061177749291
          0.039008660641 0.023057685335 0.012428421978 0.0059909457063 0.0025234574422 0.00090288547817
          0.00026445817554 6.0051183955e-05 9.5850099334e-06 8.2987820436e-07 -1.129205135e-08 -7.1162175675e-09
          4.2550204875e-10 6.0487057344e-11 -1.4878465686e-11 1.3421204235e-12 5.5240457215e-14 -4.7045303513e-14
          1.1257665821e-14 -1.9183524595e-15 0 1 0.75443469827 0.58091461562
          0.46305532837 0.37251097712 0.29901596616 0.23766282399 0.18569846985 0.14158142142
          0.10449291064 0.073996637604 0.049776977249 0.031441876703 0.018398671665 0.0098172156581
          0.0046881707332 0.0019592617714 0.00069681107964 0.00020318202473 4.5946098673e-05 7.2864911001e-06
          6.1929550362e-07 -1.0753080629e-08 -5.389527654e-09 3.5596071362e-10 4.3008470846e-11 -1.1578153493e-11
          1.1364662474e-12 2.3709752757e-14 -3.4455581592e-14 8.7306988835e-15 -1.5398360795e-15 0
          1 0.76375361439 0.56208279702 0.42640926341 0.32992751808 0.25680604281
          0.19904069682 0.15235907536 0.11423701593 0.083123210528 0.058092952573 0.038560135183
          0.024014425682 0.013843505794 0.0072738049899 0.0034211579742 0.0014092463206 0.00049452631731
          0.00014240002958 3.1794756557e-05 4.9629861437e-06 4.0817079108e-07 -9.3573770835e-09 -3.6121704491e-09
          2.6944750376e-10 2.6332078683e-11 -8.036435522e-12 8.6320362026e-13 1.6343902186e-15 -2.2366991478e-14
          6.045079166e-15 -1.0993244987e-15 0 1 0.77217175892 0.55330149783
          0.39680697712 0.29353621031 0.22067195991 0.16569574338 0.12311228646 0.089901230122
          0.063938892845 0.04378237108 0.028500736366 0.017405744644 0.0098343936291 0.0050621755208
          0.0023319830683 0.00094086955898 0.00032342008471 9.120650658e-05 1.9915861243e-05 3.0245809522e-06
          2.3598722351e-07 -7.287027307e-09 -2.1177623547e-09 1.8213916526e-10 1.345582549e-11 -4.8977495685e-12
          5.7592075263e-13 -8.3871789645e-15 -1.2723617186e-14 3.6790590057e-15 -6.8566472061e-16 0
          1 0.77890114559 0.55115301384 0.37272025079 0.26225461461 0.19002716483
          0.13735629467 0.098059439738 0.069006084288 0.04752671482 0.031644009604 0.020075376243
          0.01195775048 0.0065887209217 0.0033057285619 0.0014833938462 0.0005825779816 0.00019475576977
          5.333321491e-05 1.1273713739e-05 1.6437041826e-06 1.1850022349e-07 -5.0035220246e-09 -1.0698658496e-09
          1.0890877687e-10 5.3393535465e-12 -2.576189228e-12 3.3410075732e-13 -1.0119070507e-14 -6.1461705073e-15
          1.9268852885e-15 -3.6781461876e-16 0 1 0.78368512935 0.55207939042
          0.35343530472 0.23511648045 0.16383359534 0.11299426807 0.076643762 0.051439464033
          0.034004515541 0.021856941208 0.013434851323 0.0077649378905 0.0041519097188 0.0020201090317
          0.0008780778137 0.00033354305454 0.00010763545686 2.8370825718e-05 5.7424530013e-06 7.9168740524e-07
          5.0872153295e-08 -2.9882336261e-09 -4.5555434677e-10 5.699861144e-11 1.3090309747e-12 -1.1476963254e-12
          1.6767243288e-13 -7.9820421287e-15 -2.3947774371e-15 8.5106099494e-16 -1.6831236231e-16 0
          1 0.78635244177 0.55333888755 0.33908455529 0.21161104414 0.14135216504
          0.091898927889 0.058606294217 0.037133155665 0.023339464782 0.014372475974 0.008508615238
          0.0047474177013 0.0024510008792 0.0011502728854 0.00048142721012 0.00017567386143 5.4291509391e-05
          1.3644088728e-05 2.6129404432e-06 3.3463128746e-07 1.8167955263e-08 -1.5298417743e-09 -1.5726385887e-10
          2.5703660656e-11 -1.1176857719e-13 -4.2151533028e-13 7.2147450161e-14 -4.905590421e-15 -6.8465014117e-16
          3.1067628475e-16 -6.5439128557e-17 0 1 0.78669415471 0.55301264125
          0.32977137668 0.19094605089 0.12196658988 0.074278773949 0.044243097133 0.026148187097
          0.015413986386 0.0089880864018 0.0050813830161 0.0027195702787 0.0013480013136 0.00060660275539
          0.00024284724476 8.4487115051e-05 2.4787687259e-05 5.8773616542e-06 1.0505115135e-06 1.2225522852e-07
          5.1133611124e-09 -6.5954556728e-10 -4.034944125e-11 9.7502798437e-12 -3.2646886562e-13 -1.2116996699e-13
          2.6083922481e-14 -2.41025948e-15 -1.0242506694e-16 9.0820826565e-17 -2.1409835911e-17 0
          1 0.78438202062 0.54977121562 0.3247430173 0.17130655831 0.10632327341
          0.061473522067 0.034115722733 0.018525129751 0.010007019869 0.0053974948225 0.0028626835273
          0.0014525719611 0.00068567389547 0.00029378709562 0.00011166282932 3.6721593195e-05 1.0126059836e-05
          2.2379201362e-06 3.6726042903e-07 3.7709220082e-08 9.8417375269e-10 -2.3348920143e-10 -5.5950960316e-12
          2.994521008e-12 -1.9957491142e-13 -2.3872535112e-14 7.6297844258e-15 -9.3799497758e-16 2.0688275461e-17
          1.9868644025e-17 -5.753617219e-18 0 1 0.77883950352 0.54282340899
          0.32143973947 0.16250229503 0.098471327002 0.055042678465 0.028589722041 0.014141494327
          0.0067974440163 0.0032476260211 0.0015494315299 0.00072365446142 0.0003198033656 0.00012914987069
          4.6204407689e-05 1.4222124599e-05 3.6420774446e-06 7.3919072906e-07 1.0905485398e-07 9.4491317033e-09
          5.0370920608e-11 -6.5107371574e-11 8.5393322805e-13 6.934703901e-13 -7.6621321085e-14 -1.5814098166e-15
          1.6852165858e-15 -2.7884848186e-16 1.8932820705e-17 2.8454528477e-18 -1.2335559807e-18 0
          1 0.76907703106 0.53179258824 0.3174214303 0.17000066219 0.10185893578
          0.055244938377 0.027568172105 0.012660736419 0.0054060491823 0.0021934191323 0.00087203967512
          0.00034669141906 0.00013626913001 5.0672595955e-05 1.6885889227e-05 4.8137303398e-06 1.1274784739e-06
          2.0597016433e-07 2.6528444685e-08 1.7917036687e-09 -4.6194475934e-11 -1.3122700582e-11 7.6998483223e-13
          9.8109708768e-14 -1.9003366128e-14 7.2312356384e-16 2.3403779902e-16 -5.2895324762e-17 4.3977437356e-18
          4.5802652671e-19 -2.2290672415e-19 0 1 0.75346261596 0.51635927874
          0.31455135438 0.18060560386 0.11125900882 0.060989275739 0.030311048649 0.013573591616
          0.0054321770318 0.0019326001275 0.00061672165087 0.00018384826346 5.5200797613e-05 1.7321807432e-05
          5.2711992287e-06 1.3858711571e-06 2.9108409844e-07 4.6225168899e-08 4.971606318e-09 2.1961823903e-10
          -2.0304610506e-11 -1.4289556151e-12 2.4429801539e-13 -7.4367347266e-15 -1.1553524825e-15 1.6248483397e-16
          -2.7180136713e-17 1.0916430256e-17 -3.2037617583e-18 5.3469974812e-19 -1.6858796813e-20 0
          1 0.7289757573 0.4973261925 0.31342184602 0.1905345639 0.12065001904
          0.06969768858 0.035607472282 0.016207405207 0.0064690948271 0.0022098542381 0.00062567835202
          0.00014246940077 2.6651671678e-05 5.0583711172e-06 1.269674947e-06 3.2612551271e-07 6.0966128938e-08
          7.4987602403e-09 6.2163692197e-10 1.5755860743e-11 -5.8054020438e-12 1.0731395267e-13 8.9236306485e-14
          -2.096169429e-14 2.6855773145e-15 -2.4493697304e-18 -1.1087410749e-16 3.5461374863e-17 -6.4981043773e-18
          5.0226858325e-19 1.2295872022e-19 0 1 0.68973399273 0.47739505565
          0.3126334873 0.19918728606 0.12900694501 0.078486843913 0.04195061975 0.019757361391
          0.0080926463238 0.0028018559077 0.00078301839071 0.00016392150266 2.2422530005e-05 1.472663194e-06
          7.9049444294e-08 5.7016916789e-08 1.2352603202e-08 3.8875491234e-10 -2.7524549575e-12 1.6482121539e-11
          -3.0963546966e-12 -5.2729185588e-15 1.1422087673e-13 -2.8799929844e-14 3.3431981407e-15 2.2802871796e-16
          -2.1303521673e-16 5.665114429e-17 -8.5803516916e-18 2.0382057348e-19 3.1247056112e-19 0
          1 0.62877606479 0.45885448796 0.30968639582 0.20529403991 0.13574288974
          0.085478020672 0.04778816539 0.023350279945 0.0098578036531 0.0035000967655 0.00099792746409
          0.00021086371777 2.7727301689e-05 9.6055046666e-07 -2.4344218686e-07 6.9480736084e-10 6.3777437883e-09
          -4.7487524743e-10 -7.8958254379e-11 2.7660191485e-11 -3.2417607991e-12 -2.2160628371e-13 1.7509365443e-13
          -3.7868959495e-14 3.5241091334e-15 5.5882369376e-16 -3.24643689e-16 7.7887571843e-17 -1.0530063479e-17
          -1.187272699e-19 5.0594680069e-19 0 0.76720424928 0.60552392142 0.42745175738
          0.30341209421 0.20706666907 0.13945219475 0.089639714913 0.051847466391 0.026151009452
          0.011326645963 0.0041079498472 0.0011942811661 0.00025774676501 3.4878706285e-05 1.299250594e-06
          -3.3787488938e-07 -1.2288414596e-08 7.1217527123e-09 -5.0003187241e-10 -1.1136097058e-10 3.4024896618e-11
          -3.4323126266e-12 -3.8382070922e-13 2.2217766332e-13 -4.4713211149e-14 3.672350363e-15 7.9511745282e-16
          -4.0672874129e-16 9.4655205209e-17 -1.2515698668e-17 -2.0488982091e-19 6.2231054264e-19 0
          0.61054272878 0.53078095299 0.40061584222 0.28777187226 0.202794223 0.13871208438
          0.090266045788 0.053302809149 0.027500521023 0.012127765397 0.004458142409 0.0013108178789
          0.00028656872606 3.9689848201e-05 1.6810786575e-06 -3.6230697014e-07 -1.7677489994e-08 7.6931835379e-09
          -4.4985750363e-10 -1.2881573607e-10 3.5844698363e-11 -3.3520843972e-12 -4.5176562469e-13 2.3729984624e-13
          -4.6931604946e-14 3.8492069633e-15 8.2523158556e-16 -4.2734281036e-16 1.0141758942e-16 -1.4111204679e-17
          5.4686826243e-20 6.0539450204e-19 0 0.48775048273 0.44471309665 0.35718177282
          0.26637695781 0.19102844764 0.13250294354 0.086845030575 0.051773968423 0.027030378704
          0.012029361952 0.0044439739513 0.0013096250811 0.00028700305594 4.0098729663e-05 1.8257323245e-06
          -3.4330585095e-07 -1.92678223e-08 7.2739966897e-09 -3.8109526475e-10 -1.2412547327e-10 3.3032557518e-11
          -3.0341622246e-12 -4.1153435255e-13 2.1621483283e-13 -4.3592754995e-14 3.922568189e-15 6.4767457975e-16
          -3.7797209687e-16 9.4876252042e-17 -1.4519633463e-17 5.3891763362e-19 4.5933504541e-19 0
          0.38528950333 0.3603127454 0.30238812695 0.23467451886 0.1723519913 0.12065802423
          0.07927263336 0.047286610566 0.024718969354 0.01099714596 0.0040481034826 0.0011854551996
          0.00025793284496 3.5882575988e-05 1.6796370676e-06 -2.9048041456e-07 -1.7256414607e-08 6.0432821892e-09
          -3.0238864865e-10 -1.0120920065e-10 2.6633806623e-11 -2.511790483e-12 -2.9884832938e-13 1.6838811497e-13
          -3.546750262e-14 3.6596607809e-15 3.6775530949e-16 -2.7947814635e-16 7.6398082159e-17 -1.3121398501e-17
          9.6263909692e-19 2.5241382448e-19 0 0.29741241257 0.2821716622 0.24387350623
          0.19523780226 0.14667183095 0.10365066386 0.067992116336 0.040292282401 0.020894873891
          0.0092088148991 0.0033498820072 0.0009671049551 0.00020715753239 2.8382009777e-05 1.3215546076e-06
          -2.1909441555e-07 -1.2962910082e-08 4.4158753559e-09 -2.2232357259e-10 -7.0491393686e-11 1.874994117e-11
          -1.8615681017e-12 -1.7353805402e-13 1.1191562029e-13 -2.4980741178e-14 2.9740018836e-15 1.2058568067e-16
          -1.7038029462e-16 5.2116155971e-17 -1.0109217226e-17 1.0915226515e-18 7.3211002351e-20 0
          0.22190568463 0.21234870371 0.18707357581 0.15299064886 0.11678509232 0.082999150219
          0.054166282856 0.031702333485 0.016182645903 0.0070073915477 0.0024997576071 0.00070634205849
          0.0001478467897 1.9761826536e-05 8.9082605759e-07 -1.4667487508e-07 -8.2186110982e-09 2.8308296347e-09
          -1.489259742e-10 -4.2068842178e-11 1.1490380249e-11 -1.2121026335e-12 -7.9317503188e-14 6.3366158981e-14
          -1.5081306207e-14 2.0438047539e-15 -1.7609656634e-17 -8.4023809404e-17 2.9669796991e-17 -6.5041831353e-18
          9.0975950094e-19 -2.6254981555e-20 0 0.15812503338 0.15209878479 0.13559214993
          0.1123069975 0.086410957923 0.061354968723 0.03961262217 0.022762060112 0.011357863764
          0.0047970420777 0.0016665506437 0.00045791751586 9.3040552947e-05 1.2031328303e-05 5.119924135e-07
          -8.6525649904e-08 -4.3771782773e-09 1.5831802441e-09 -8.9267783271e-11 -2.1455739969e-11 6.1031255608e-12
          -6.8442163692e-13 -2.703505932e-14 3.0528372182e-14 -7.7538455872e-15 1.1716529897e-15 -5.52647809e-17
          -3.2644543843e-17 1.3919425727e-17 -3.4466864315e-18 5.8402093669e-19 -5.1034668882e-20 0
          0.10604597438 0.10230488248 0.091783784563 0.07642315187 0.058786676044 0.041376111496
          0.026241941655 0.014707181699 0.0071268204644 0.0029169257958 0.0009808561886 0.00026055030688
          5.1078770933e-05 6.3404752775e-06 2.4816496499e-07 -4.4483249009e-08 -1.9298437861e-09 7.6492172849e-10
          -4.6978602537e-11 -9.2614277181e-12 2.7877814959e-12 -3.3184698927e-13 -5.5057317518e-15 1.2472526775e-14
          -3.3795191248e-15 5.5783925622e-16 -4.2935834816e-17 -9.5237264604e-18 5.3256424055e-18 -1.4906849765e-18
          2.9424876926e-19 -3.7870052178e-20 0 0.06567509423 0.063441074761 0.057021965112
          0.047407718188 0.036164493832 0.025023574402 0.015472212137 0.0084005635534 0.0039290949462
          0.00154948579 0.00050158974844 0.00012813163251 2.4100844112e-05 2.8505015664e-06 9.9606056479e-08
          -1.9626203678e-08 -6.8678725117e-10 3.1473574201e-10 -2.1206506514e-11 -3.3301163819e-12 1.0801522374e-12
          -1.3627743645e-13 4.630971785e-16 4.2728709204e-15 -1.2382885233e-15 2.1981279577e-16 -2.202244633e-17
          -1.8101362832e-18 1.6405290078e-18 -5.2189993986e-19 1.171447387e-19 -1.8870288489e-20 0
          0.036607375846 0.035361771866 0.031714302586 0.026156230709 0.019628589432 0.013242429521
          0.0079230390385 0.0041410164431 0.0018591536152 0.00070290391224 0.00021799859023 5.329640365e-05
          9.5683032586e-06 1.0704352528e-06 3.2103201028e-08 -7.2865189223e-09 -1.8877975141e-10 1.0833665981e-10
          -7.9937004359e-12 -9.8093957932e-13 3.4841150611e-13 -4.633070455e-14 9.3787882587e-16 1.2033612914e-15
          -3.7435015421e-16 7.0681146537e-17 -8.3938293847e-18 -6.3039547598e-20 3.9589388616e-19 -1.4558966338e-19
          3.6652148435e-20 -6.9123868227e-21 0 0.017712286186 0.017091305774 0.015236533948
          0.012383597286 0.0090685624038 0.0059181938224 0.003403012922 0.0017025074516 0.00073020758663
          0.00026352984231 7.7976133323e-05 1.8166472535e-05 3.0974336368e-06 3.250796605e-07 7.7956599072e-09
          -2.2207146337e-09 -3.5701298514e-11 3.0556144689e-11 -2.4599880156e-12 -2.335332009e-13 9.1911862343e-14
          -1.2690652497e-14 4.1126015002e-16 2.7526317713e-16 -9.1011695751e-17 1.7975508284e-17 -2.3879187454e-18
          9.0630170988e-20 7.1325499445e-20 -3.1312225695e-20 8.7827569497e-21 -1.8761165197e-21 0
          0.0070453873701 0.0067870467752 0.0059916895742 0.0047647705282 0.0033768840559 0.0021158166899
          0.0011621851881 0.00055392694841 0.00022607912396 7.7606242549e-05 2.1828361017e-05 4.8255827156e-06
          7.7656542857e-07 7.5379429058e-08 1.1644499448e-09 -5.3658908984e-10 -2.0551698695e-12 6.8589757034e-12
          -6.1362277764e-13 -4.3344387713e-14 1.9585015235e-14 -2.7636988849e-15 1.0631739758e-16 5.2182788687e-17
          -1.7625527528e-17 3.5053606065e-18 -4.8593112772e-19 2.9582239483e-20 9.6704448748e-21 -5.0360956404e-21
          1.5406761754e-21 -3.6307663975e-22 0 0.002101336224 0.0020223062672 0.0017602039735
          0.0013570633876 0.00092228354158 0.00055088174874 0.00028763627324 0.00013015628438 5.0402688769e-05
          1.6403194287e-05 4.3656770322e-06 9.0879916301e-07 1.3591760559e-07 1.1658164575e-08 -3.0033219176e-11
          -9.6737737102e-11 1.6578928906e-12 1.1559887184e-12 -1.259499518e-13 -5.1266407958e-15 3.3043614031e-15
          -4.8876346481e-16 2.1122051168e-17 8.2555174185e-18 -2.7888680308e-18 5.3583381441e-19 -7.0554014253e-20
          3.8785261059e-21 1.3541294972e-21 -6.6039500904e-22 1.9835717845e-22 -4.798954897e-23 0
          0.00038450645483 0.00037182496129 0.00031588989343 0.00023254836586 0.00015001700571 8.4957537658e-05
          4.2035065149e-05 1.7999474679e-05 6.5761677491e-06 2.0074558113e-06 4.9551850452e-07 9.3385795394e-08
          1.1846814771e-08 6.1388737551e-10 -7.6167900527e-11 -1.1239258072e-11 8.2820221386e-13 1.2458766128e-13
          -2.1976955216e-14 1.512687231e-16 4.1572443934e-16 -7.4055973653e-17 4.6107082395e-18 9.2272495056e-19
          -3.6305203348e-19 7.0901535092e-20 -9.0004007735e-21 3.661947892e-22 2.0825538835e-22 -8.6827087707e-23
          2.3279877762e-23 -5.0621769968e-24 0 1.6308522688e-05 1.7179528403e-05 1.3591614573e-05
          9.2824322971e-06 5.5649436537e-06 2.8999785004e-06 1.285594897e-06 4.6823764102e-07 1.306944167e-07
          2.256173422e-08 -8.8006674415e-10 -2.2324244784e-09 -8.5358756672e-10 -1.8492182874e-10 -2.1624259872e-11
          -3.035597731e-13 2.1618314428e-13 1.9030360042e-15 -3.2924808421e-15 2.4893963458e-16 3.2824020536e-17
          -1.0232442981e-17 1.0917269018e-18 3.1428533803e-20 -3.7441531171e-20 8.8010017661e-21 -1.302782054e-21
          9.9143747941e-23 1.4802142506e-23 -9.0167797388e-24 2.7069254424e-24 -6.2630479114e-25 0
          -7.5756955127e-06 -6.9169047702e-06 -5.5828089639e-06 -3.9629089372e-06 -2.5234740947e-06 -1.439528544e-06
          -7.32073593e-07 -3.2973383287e-07 -1.3032054986e-07 -4.4587098489e-08 -1.2939796297e-08 -3.0856460335e-09
          -5.7244236587e-10 -7.3734029892e-11 -4.4747938499e-12 3.1795460909e-13 5.9352865529e-14 -4.0615887419e-15
          -6.9986942288e-16 1.1595545621e-16 3.9701201071e-19 -2.3791527684e-18 3.8872506107e-19 -1.8398079834e-20
          -6.1075441283e-21 2.0197135722e-21 -3.5804455111e-22 3.9009577487e-23 -1.0152173203e-26 -1.3519710123e-24
          4.5896126958e-25 -1.1752503436e-25 0
        </DataArray>
        <DataArray type="Float64" Name="pressure" format="ascii" RangeMin="-0.028595771081" RangeMax="1.1509741689">
          1.1509741689 1.1460389159 1.1368923051 1.126205735 1.1148487815 1.1034415513
          1.0923979794 1.0819903338 1.0723929062 1.063709985 1.0559931706 1.0492515719
          1.0434577843 1.0385522443 1.0344483375 1.03104012 1.0282132116 1.0258572474
          1.0238763948 1.0221947125 1.0207557931 1.0195188611 1.018454157 1.0175392911
          1.0167568881 1.0160931822 1.0155371638 1.015080027 1.0147147916 1.0144360379
          1.0142397181 1.0141230259 1.0140843102 1.093883291 1.0914784215 1.0854566558
          1.0775094333 1.068701007 1.0596652831 1.0508056023 1.04237958 1.0345474453
          1.0274022259 1.0209886584 1.015314996 1.010360728 1.0060824824 1.002419724
          0.99930107711 0.99665116105 0.99439705303 0.99247326942 0.99082454425 0.98940636901
          0.98818388656 0.98713002687 0.9862236374 0.98544798704 0.98478969951 0.98423802405
          0.98378433465 0.98342177889 0.98314502777 0.98295009711 0.98283422252 0.98279577676
          1.0432054779 1.0415655059 1.0370199085 1.0308057462 1.0238348522 1.016648166
          1.0095823203 1.0028439115 0.99655539368 0.99078367367 0.98555773346 0.98087972042
          0.97673228436 0.97308400927 0.96989409605 0.96711671292 0.96470481447 0.96261304503
          0.96079960262 0.95922726789 0.95786385562 0.95668221494 0.95565985454 0.95477833172
          0.95402257999 0.95338030275 0.95284148391 0.95239801376 0.9520434088 0.9517726039
          0.95158179984 0.95146835471 0.95143071119 0.99606348511 0.99483072985 0.99124952864
          0.98625197803 0.9806341692 0.97486742129 0.96922307679 0.96385496874 0.95884623176
          0.95423545113 0.95003293406 0.94623140267 0.9428128619 0.93975309701 0.93702491024
          0.93460050784 0.93245296717 0.93055677041 0.92888775829 0.92742304222 0.92614119092
          0.92502262475 0.924049965 0.92320816903 0.92248445079 0.9218680779 0.92135013435
          0.92092329931 0.92058166063 0.92032056569 0.92013650636 0.92002703435 0.91999070317
          0.9513890001 0.95043382154 0.94759561975 0.94353185158 0.93896915853 0.93432937601
          0.92982274606 0.92555911696 0.92159239174 0.91793939994 0.91459441682 0.91154071902
          0.90875787022 0.90622562694 0.90392586036 0.90184320703 0.89996468841 0.8982786235
          0.89677342419 0.89543686295 0.89425605115 0.89321794206 0.89230998208 0.8915206206
          0.890839584 0.89025795617 0.88976814648 0.88936380926 0.88903975155 0.88879184674
          0.88861696134 0.8885128978 0.88847835376 0.90857451695 0.90783273429 0.90559251286
          0.90228667062 0.89858356067 0.89486634071 0.89129100777 0.88793139788 0.88481989305
          0.88195712644 0.87932536969 0.87690107129 0.87466227038 0.87259181213 0.8706781029
          0.86891439192 0.86729710841 0.86582381087 0.86449140484 0.8632951313 0.86222843913
          0.8612834839 0.86045185383 0.8597252164 0.85909575964 0.85855643688 0.8581010742
          0.85772439816 0.85742202336 0.85719042294 0.85702689543 0.85692953463 0.85689720649
          0.86719383025 0.86662062294 0.86486882789 0.86220973353 0.85923464833 0.85629227828
          0.85349616444 0.85089254337 0.84849514606 0.84629059189 0.84425307667 0.84235623821
          0.8405791408 0.83890830044 0.83733741759 0.83586576503 0.83449585859 0.83323103839
          0.83207356169 0.83102357246 0.83007895108 0.82923576205 0.82848893482 0.82783290641
          0.82726210519 0.82677126637 0.82635561741 0.82601097677 0.82573379983 0.82552119486
          0.82537092346 0.82528139452 0.825251657 0.82692058013 0.82648345749 0.82514289957
          0.82306348422 0.82072673175 0.81845188028 0.81632270719 0.81436385574 0.81257011857
          0.81091682759 0.80937510602 0.80792006291 0.80653428829 0.80520860785 0.80394110695
          0.80273512295 0.80159678485 0.80053267483 0.79954809356 0.79864616109 0.79782768671
          0.79709154239 0.79643523908 0.79585549075 0.7953486663 0.79491111303 0.79453937211
          0.79423031517 0.79398122699 0.79378985324 0.79365442628 0.79357367827 0.79354684701
          0.78749680444 0.78717387819 0.78619542985 0.78465803448 0.78290202575 0.7812228368
          0.77968173276 0.77827943393 0.77699554468 0.77580222594 0.77467359114 0.77358945302
          0.77253712537 0.77151152835 0.77051397865 0.76955019751 0.76862806568 0.76775561064
          0.76693957826 0.76618471454 0.76549366043 0.76486723701 0.76430489352 0.76380516069
          0.76336603394 0.76298526762 0.76266058851 0.76238984485 0.76217110741 0.76200273615
          0.76188342303 0.76181221869 0.76178854808 0.74871207867 0.7484894063 0.74784509227
          0.74683363796 0.74563033996 0.74451295674 0.74350279807 0.74257755283 0.74171871664
          0.74090654106 0.74012262563 0.7393526689 0.73858830146 0.73782738821 0.7370730404
          0.73633189678 0.73561223466 0.73492234065 0.73426938971 0.73365888518 0.73309455889
          0.73257856026 0.73211177406 0.73169415774 0.73132504331 0.73100338489 0.7307279514
          0.73049747125 0.73031073795 0.73016668546 0.73006444041 0.73000335727 0.72998304059
          0.71038853523 0.71025731127 0.70993271625 0.70945390384 0.70883577836 0.70825551435
          0.70771098398 0.70718564317 0.70667892779 0.7061845871 0.70569286034 0.70519474735
          0.70468483271 0.70416238208 0.70363089811 0.70309679879 0.70256788215 0.70205201717
          0.7015562538 0.70108636292 0.7006467147 0.70024037156 0.69986928708 0.69953453736
          0.69923654431 0.69897527193 0.69875038982 0.69856140384 0.69840775749 0.69828890833
          0.69820438394 0.69815382133 0.69813699294 0.67237181627 0.67232659845 0.67231572265
          0.67238075934 0.67241237052 0.67233986792 0.6721956909 0.67201247714 0.67180814555
          0.67158954367 0.67135543693 0.67110130423 0.67082348456 0.67052143535 0.67019808098
          0.66985895976 0.66951098729 0.66916136233 0.66881681058 0.66848316411 0.66816519833
          0.66786663742 0.66759025451 0.66733801539 0.66711123395 0.66691072111 0.66673691769
          0.66659000729 0.66647000849 0.66637684785 0.66631041548 0.66627060572 0.66625734459
          0.63452694149 0.63456518377 0.6348730317 0.63547287082 0.63612298469 0.63656073991
          0.63681326447 0.63695832994 0.63703897994 0.6370785324 0.63708587377 0.63706139563
          0.6370030224 0.63691005866 0.63678459013 0.63663118473 0.63645591757 0.63626540661
          0.63606611507 0.63586393116 0.63566395986 0.63547045896 0.63528686546 0.63511587356
          0.63495953741 0.63481938086 0.63469650309 0.63459167367 0.63450541415 0.63443806517
          0.63438983947 0.63436086171 0.63435119593 0.59673640328 0.5968603808 0.59751135613
          0.59862985195 0.59981180834 0.60075386117 0.60144146579 0.60193970694 0.60231718807
          0.60261923066 0.60286773717 0.60306974036 0.60322574755 0.60333555684 0.6034009227
          0.60342590352 0.6034161534 0.60337805397 0.60331804515 0.60324219787 0.60315597546
          0.60306412634 0.60297066417 0.60287890306 0.60279152414 0.60271065667 0.6026379622
          0.60257471452 0.60252187117 0.6024801342 0.6024499996 0.6024317951 0.60242570683
          0.55889792896 0.55912143305 0.56017540914 0.5618132684 0.56348492841 0.56489852547
          0.56603108481 0.56691243865 0.56761315738 0.56819566776 0.56869564458 0.5691283673
          0.56949852921 0.56980779965 0.57005872485 0.57025574469 0.57040478006 0.57051248056
          0.57058560173 0.57063059521 0.57065336999 0.57065917326 0.5706525523 0.5706373691
          0.57061684698 0.57059363411 0.57056987315 0.57054727003 0.57052715721 0.57051054885
          0.57049818642 0.57049057427 0.57048800493 0.52093581184 0.52127262406 0.52288105697
          0.52504133919 0.52717846964 0.5290416499 0.53060264443 0.5318798074 0.53292775423
          0.53381169589 0.53457712371 0.53524759192 0.53583336336 0.53633961508 0.5367711282
          0.53713384517 0.53743476684 0.53768137172 0.53788109524 0.53804098457 0.53816749965
          0.5382664152 0.53834279066 0.53840098434 0.53844469487 0.53847701732 0.53850050531
          0.53851723279 0.53852885162 0.53853664223 0.53854155604 0.53854424873 0.53854510417
          0.48235564389 0.4835066891 0.48574406135 0.48838420591 0.49095952041 0.49324706305
          0.4952167243 0.4968855384 0.49829167727 0.49949144077 0.50053295945 0.50144613089
          0.50224736652 0.50294676599 0.50355275828 0.50407389689 0.5045190387 0.50489700153
          0.50521621862 0.50548451471 0.50570898787 0.50589596289 0.50605099162 0.50617888327
          0.50628375273 0.50636907795 0.50643776038 0.50649218368 0.50653426793 0.50656551724
          0.50658705956 0.50659967801 0.50660383346 0.44453899289 0.44621049567 0.44896200113
          0.45198092932 0.45493365453 0.45760719677 0.45995920331 0.4620017006 0.46376012783
          0.46527682946 0.46659580157 0.46775014464 0.46876206577 0.46964743544 0.47041938394
          0.47108992492 0.47167034702 0.47217116447 0.47260201492 0.47297160681 0.47328771523
          0.47355720934 0.4737860992 0.47397959383 0.47414216486 0.47427761138 0.47438912288
          0.47447933793 0.47455039686 0.47460398741 0.47464138262 0.47466347052 0.47467077537
          0.40854305113 0.40985615187 0.41274919359 0.41601879222 0.41924908947 0.4222445696
          0.42493571028 0.42731832006 0.42940491222 0.43122262494 0.43280696075 0.43419106571
          0.43540188841 0.4364611789 0.43738720319 0.43819581218 0.43890096124 0.43951498054
          0.44004875667 0.44051187977 0.44091277081 0.44125879401 0.44155635771 0.44181100573
          0.44202750054 0.44220989863 0.44236161838 0.44248550016 0.4425838587 0.44265852738
          0.4427108946 0.44274193192 0.44275221427 0.373589179 0.37467821088 0.37735349505
          0.38067816101 0.38407254437 0.38729943973 0.39026325421 0.39293347069 0.39530508885
          0.39738941983 0.39921151062 0.40080224193 0.40219188594 0.40340739441 0.404471823
          0.40540462471 0.40622222761 0.40693861044 0.40756576418 0.4081140348 0.40859237774
          0.40900855213 0.40936927358 0.40968033775 0.40994672252 0.41017267395 0.41036177906
          0.4105170277 0.41064086459 0.41073523245 0.41080160681 0.41084102269 0.41085409357
          0.33967049849 0.34057874895 0.34295822255 0.3461355309 0.34955455933 0.3529070326
          0.35605618333 0.35894169432 0.36153642515 0.36383512904 0.36585210679 0.3676147064
          0.36915493188 0.37050349199 0.371687067 0.37272783554 0.37364406537 0.37445093081