<?xml version="1.0"?>
<VTKFile type="UnstructuredGrid" version="0.1" byte_order="LittleEndian" header_type="UInt32">
  <UnstructuredGrid>
    <Piece NumberOfPoints="1089" NumberOfCells="1024">
      <PointData>
        <DataArray type="Float64" Name="concentration" format="ascii" RangeMin="-4.5295364008e-09" RangeMax="1">
          1 0.86856784521 0.76491888689 0.68099300179 0.60624668998 0.53756622902
          0.47371766043 0.41414676968 0.35861077199 0.30703084127 0.25942037532 0.21584390647
          0.17638950891 0.14114697596 0.11018775423 0.083544386235 0.061188410797 0.043007010893
          0.028780668871 0.018166899786 0.010698201986 0.0058035579458 0.002858531202 0.0012571017156
          0.00048367741685 0.00015855386895 4.2618404625e-05 8.8211117502e-06 1.2395865917e-06 7.9284848528e-08
          -4.5295364008e-09 -3.8205093227e-10 0 1 0.81856840628 0.73570723018
          0.65978563542 0.58920673782 0.52316136256 0.46121085726 0.4031399645 0.34887170436
          0.29841640591 0.25183834603 0.20923156203 0.17070018139 0.13634040978 0.10622234066
          0.080370528091 0.058743103174 0.041210391755 0.027535749672 0.017363665508 0.010222388578
          0.0055485356458 0.0027365786346 0.0012057179769 0.00046482721818 0.00015262350081 4.1060149127e-05
          8.4963450432e-06 1.1914213058e-06 7.5550075925e-08 -4.4454786128e-09 -3.715061827e-10 0
          1 0.81194573144 0.70718875964 0.62551756564 0.55478348764 0.49068865354
          0.43147746605 0.37639005267 0.32511440087 0.27755885506 0.23374376536 0.19374342707
          0.15765073007 0.12555189943 0.097505203586 0.073520783756 0.053540700542 0.037419876799
          0.024910434079 0.015654084314 0.0091889902395 0.0049769551674 0.0024517489115 0.0010799190431
          0.0004164544801 0.00013677689488 3.6772574931e-05 7.5869154943e-06 1.0552621087e-06 6.4939775939e-08
          -4.1330941677e-09 -3.0319312228e-10 0 1 0.81630071043 0.6869093808
          0.59358938257 0.51768257795 0.45228820573 0.39420316106 0.34167696743 0.29372438803
          0.24981723378 0.20970297294 0.17328926783 0.1405691336 0.11157024121 0.086317579499
          0.064803239743 0.046960393314 0.032641139792 0.021600385572 0.013490220184 0.0078703548037
          0.0042383287579 0.0020773062411 0.00091105183924 0.00035002719502 0.00011453602527 3.0647826306e-05
          6.2745328829e-06 8.5931081221e-07 5.034697936e-08 -3.5543968113e-09 -2.2280520315e-10 0
          1 0.82182423663 0.67339986945 0.56531751509 0.48168069576 0.41336273091
          0.35538144424 0.30483961567 0.25998679942 0.21976638805 0.18355894192 0.15102288509
          0.12198984098 0.096390461403 0.074197368314 0.055378660518 0.039859556013 0.027492531634
          0.018038526355 0.011163167397 0.0064515447492 0.0034417642349 0.0016716222025 0.00072680161074
          0.00027690605446 8.9832176852e-05 2.3800615999e-05 4.8083287235e-06 6.4427104196e-07 3.5529684053e-08
          -2.8167469098e-09 -1.5336769054e-10 0 1 0.82627271372 0.66499404819
          0.54074048813 0.44774361588 0.37587231525 0.31782785971 0.26913433138 0.22716617881
          0.19038234391 0.15785530691 0.12902360697 0.1035610301 0.081292262274 0.062125224988
          0.045992004266 0.03279900605 0.022389839689 0.014524871847 0.0088803894615 0.0050677664085
          0.0026689109819 0.0012795892176 0.00054920471356 0.00020652695149 6.6090714339e-05 1.7246030272e-05
          3.4198215909e-06 4.4609131478e-07 2.2980244719e-08 -2.0623723719e-09 -9.955993731e-11 0
          1 0.82922143293 0.65959809923 0.51956454116 0.41608791699 0.34055970727
          0.28282345208 0.23615270014 0.19691456676 0.16320889284 0.13394180996 0.10842245562
          0.086207652219 0.067023703431 0.050703386096 0.037125081706 0.026158280929 0.017623414169
          0.011271975597 0.0067888042984 0.0038138066375 0.0019762425588 0.00093190561087 0.00039324269064
          0.00014530674002 4.5647506591e-05 1.1673163856e-05 2.2611136826e-06 2.8593455372e-07 1.3647323607e-08
          -1.3996228887e-09 -6.0620711243e-11 0 1 0.83060888585 0.65542476676
          0.50149938078 0.3866434442 0.30763016695 0.25093355147 0.20658961481 0.16990294305
          0.13886067527 0.1123803118 0.089733692899 0.070398278813 0.05400663436 0.040303347431
          0.029093959064 0.020193873287 0.013389558929 0.008420268029 0.004981702749 0.0027469400132
          0.0013961015109 0.00064524835597 0.00026666346342 9.64133476e-05 2.9599423785e-05 7.383968671e-06
          1.391061344e-06 1.6983644394e-07 7.4193389806e-09 -8.8235300783e-10 -3.4209367921e-11 0
          1 0.83039378501 0.65114707924 0.48619219253 0.35937725069 0.27727975143
          0.22256765521 0.18076334837 0.1463350239 0.11751231992 0.093367485987 0.073187099814
          0.056384628914 0.04249492907 0.031160911052 0.022100423309 0.015064501366 0.0098024955875
          0.0060445084716 0.0035032824551 0.0018905829191 0.00093949299665 0.00042413057815 0.00017102785423
          6.0262898981e-05 1.8004905083e-05 4.3631271545e-06 7.9612945623e-07 9.3419737829e-08 3.663427417e-09
          -5.1711357853e-10 -1.7598448648e-11 0 1 0.82845682847 0.64581467064
          0.47325774527 0.33495813018 0.25026712875 0.19833872589 0.1589383949 0.12631928677
          0.099260537236 0.07703155339 0.058941484855 0.044338679207 0.032653164848 0.023416568643
          0.016251267089 0.010841281164 0.006902003734 0.0041612763245 0.0023559774735 0.001240670235
          0.00060091068507 0.00026407717791 0.00010352419428 3.5412894696e-05 1.0255876508e-05 2.404588547e-06
          4.2322297968e-07 4.7474566533e-08 1.619283823e-09 -2.8146632043e-10 -8.0634829164e-12 0
          1 0.8245391059 0.63872154121 0.46231113181 0.31552964964 0.22762294875
          0.17893513792 0.14149076667 0.1101127821 0.084313710896 0.063552583667 0.047151467095
          0.034384776388 0.024570242628 0.017122280843 0.011564988091 0.0075169024065 0.0046647692293
          0.00274085308 0.0015111586874 0.00077409442769 0.00036422769692 0.00015527350647 5.8961049281e-05
          1.9506464687e-05 5.4548703114e-06 1.2325397276e-06 2.0835037108e-07 2.2194446196e-08 6.2384300177e-10
          -1.4188388917e-10 -3.1630096685e-12 0 1 0.81815232546 0.62927998921
          0.45285026614 0.3041331925 0.20938298241 0.16557992892 0.12910381895 0.098178166659
          0.072972770454 0.053122611687 0.037929029325 0.02657244728 0.018246370378 0.012241517447
          0.0079815021016 0.005020783592 0.0030210460963 0.0017224891694 0.00092139885787 0.0004575177637
          0.00020839422885 8.587032147e-05 3.1466681991e-05 1.0030139785e-05 2.6978988154e-06 5.851017159e-07
          9.4539965477e-08 9.4831781935e-09 1.9787307895e-10 -6.5913547374e-11 -9.6848361083e-13 0
          1 0.80843412141 0.61692273528 0.44438252951 0.300570625 0.203337552
          0.15981184016 0.12256885644 0.090899813097 0.065436578934 0.045820061755 0.03127108256
          0.020842407624 0.013585705703 0.0086586600374 0.0053802671122 0.0032398126768 0.0018739499304
          0.0010300976838 0.00053193375702 0.0002549571692 0.00011198395993 4.4430737187e-05 1.5651383109e-05
          4.7879309292e-06 1.2337596084e-06 2.5570257434e-07 3.9274307754e-08 3.6683890981e-09 4.3500810723e-11
          -2.801443207e-11 -1.5510694992e-13 0 1 0.79388537677 0.60118481682
          0.43661496462 0.30125159877 0.20968503594 0.16092347571 0.12152222102 0.088112399756
          0.061562029996 0.041494061073 0.027009668523 0.017015183273 0.01040631199 0.0061993489213
          0.00360371796 0.0020402839263 0.0011174636955 0.00058554960373 0.00028957054826 0.00013319862587
          5.6155125976e-05 2.1363449244e-05 7.2048117487e-06 2.1064400105e-06 5.1773100571e-07 1.0204189404e-07
          1.4798769955e-08 1.2672123791e-09 2.5820072958e-13 -1.0781787488e-11 6.1014835693e-14 0
          1 0.77182835427 0.58217299234 0.42908588899 0.30415419518 0.21705058828
          0.16433857386 0.12401444581 0.088807594912 0.06075300984 0.039718217856 0.024805879339
          0.014804736905 0.0084628303543 0.0046552560189 0.0024800554295 0.0012865583245 0.00065027134427
          0.00031797848901 0.00014833155751 6.4839497144e-05 2.6067910396e-05 9.4624384974e-06 3.0415696757e-06
          8.4602310801e-07 1.9736635177e-07 3.6778267168e-08 4.9931896007e-09 3.8294477621e-10 -6.043723909e-12
          -3.7038579136e-12 7.3249595527e-14 0 1 0.73716774211 0.56147418182
          0.4210933564 0.3068661143 0.22393696713 0.16882469434 0.12747537191 0.0914493338
          0.062026106311 0.039830564851 0.024179923033 0.013847264944 0.0074727847461 0.0038066264705
          0.0018410963748 0.00085406565741 0.00038436885705 0.0001688597037 7.2019610183e-05 2.9300630049e-05
          1.1098779727e-05 3.8171134018e-06 1.1634432939e-06 3.0633198987e-07 6.7436052771e-08 1.1793925997e-08
          1.4814113183e-09 9.7913033454e-11 -3.9027701015e-12 -1.112494189e-12 4.2955058936e-14 0
          1 0.6832003446 0.54139241867 0.41125775034 0.3077059519 0.2291886845
          0.1732835007 0.13075424524 0.094491632842 0.064244000606 0.041029465833 0.024565607388
          0.013736125607 0.0071412446823 0.0034396996498 0.0015340267204 0.0006365523358 0.00024892639003
          9.3564854619e-05 3.4419325195e-05 1.2416480368e-05 4.3015775813e-06 1.3817105368e-06 3.966140012e-07
          9.8310791976e-08 2.0277510356e-08 3.2945392202e-09 3.7615745652e-10 1.9897279815e-11 -1.6440285577e-12
          -2.8322683721e-13 1.8775887822e-14 0 0.79982724836 0.66027329908 0.51009638631
          0.39986403352 0.30509106279 0.23157157218 0.1762452144 0.1331194736 0.096843010751
          0.066345553027 0.042499917614 0.025376684376 0.014059904594 0.0071831859393 0.0033596264525
          0.0014281818 0.00054887448628 0.00019066265098 6.0494595483e-05 1.8017234406e-05 5.2457998117e-06
          1.5330434537e-06 4.4066427185e-07 1.1750208775e-07 2.7296416661e-08 5.2319027665e-09 7.7672663764e-10
          7.8147247239e-11 2.7494784681e-12 -5.2235083715e-13 -5.8324896681e-14 6.6492039499e-15 0
          0.66630116668 0.59629952044 0.4825389007 0.38168081852 0.29829067068 0.23005121331
          0.17655499135 0.13371295837 0.097754558045 0.067501071315 0.043527524105 0.026076675517
          0.014441932508 0.0073447305412 0.0034006489222 0.0014186647486 0.00052697210617 0.00017211768905
          4.8890117661e-05 1.2046568651e-05 2.635176292e-06 5.5155818409e-07 1.2245594301e-07 2.8828372188e-08
          6.3039202312e-09 1.1202827046e-09 1.4670722068e-10 1.2048705231e-11 1.0275393361e-13 -1.2532640914e-13
          -9.416673609e-15 2.0094299611e-15 0 0.5622722168 0.52342353389 0.44375023366
          0.35958660525 0.2856403283 0.2239073182 0.1733554605 0.13176434138 0.096664266109
          0.067142450028 0.043578173643 0.026240227707 0.014577918407 0.0074229434696 0.0034344343792
          0.0014280564585 0.00052630105625 0.00016894822187 4.6202017376e-05 1.0461535216e-05 1.8949425485e-06
          2.6795697335e-07 3.2336397338e-08 5.0232557965e-09 1.0990479432e-09 1.9503966272e-10 2.0145599958e-11
          8.5927386818e-13 -4.0321529638e-14 -1.9606012462e-14 -1.8952618e-15 5.9961489603e-16 0
          0.47503670505 0.45159948804 0.3964823232 0.33069113253 0.26771455079 0.21270779562
          0.16614691823 0.1267666374 0.093198606686 0.06494628205 0.042334559211 0.025595569378
          0.01426544537 0.0072814731487 0.0033758409028 0.0014065145689 0.00051942863317 0.00016698923712
          4.5602499483e-05 1.0210469202e-05 1.7711357571e-06 2.1376765945e-07 1.3516971887e-08 -2.2420831485e-11
          6.3325570983e-11 3.37437966e-11 1.8241714621e-12 -3.2876051316e-13 1.2777084552e-14 1.0183459425e-15
          -1.3665423536e-15 2.4943458041e-16 0 0.39881809779 0.38380537903 0.34547315786
          0.29565900427 0.24425193078 0.19673217067 0.15488649923 0.11856479714 0.087233115145
          0.060825042303 0.039700429095 0.024041831976 0.013418803205 0.006858101119 0.0031844281183
          0.0013299337852 0.00049307527802 0.00015949277778 4.394958362e-05 9.9629582077e-06 1.754903134e-06
          2.1429765759e-07 1.2614358116e-08 -6.2629885284e-10 -9.4290518122e-11 1.2681990275e-11 6.1553447092e-13
          -3.14329264e-13 2.2913981106e-14 3.6519173993e-15 -1.3194672573e-15 1.6072563843e-16 0
          0.33091437472 0.32093110324 0.29406856992 0.25693245342 0.21619050939 0.17644344682
          0.13993654487 0.10736815857 0.078926702295 0.054924869078 0.035785314507 0.021641154956
          0.012065397256 0.0061613152395 0.0028603793444 0.0011958731968 0.00044473831169 0.00014472756973
          4.0291336735e-05 9.2849719468e-06 1.679598797e-06 2.1522304539e-07 1.4492853288e-08 -4.0715758353e-10
          -1.1100176467e-10 8.1739491057e-12 8.8017264919e-13 -2.4589244607e-13 1.5341391646e-14 3.6409656977e-15
          -1.1029975075e-15 1.1573057003e-16 0 0.27003294917 0.26327864206 0.24439210179
          0.2169707639 0.1853268649 0.15295939768 0.12204381819 0.093731367286 0.068719186397
          0.04761047902 0.0308733952 0.018589341225 0.010324446834 0.005255858487 0.0024349514852
          0.0010175071722 0.00037909494379 0.00012399315299 3.485268638e-05 8.1633987897e-06 1.5173797204e-06
          2.0436899361e-07 1.5705089032e-08 -8.6086045688e-11 -1.0526989347e-10 4.2555885342e-12 9.8677207023e-13
          -1.7954392791e-13 6.4221056376e-15 3.2461910182e-15 -8.1764403158e-16 7.6094308819e-17 0
          0.21558965574 0.21102905671 0.19781286346 0.1777569946 0.15357113198 0.12780011469
          0.10234480589 0.078518079385 0.057291001111 0.039421791884 0.025374132116 0.015170279224
          0.0083727790322 0.004240365289 0.0019572680005 0.00081650972453 0.00030450056314 0.0001000430604
          2.8382357306e-05 6.755535379e-06 1.2898687858e-06 1.8226800423e-07 1.5697935802e-08 2.0499811978e-10
          -8.9521851545e-11 7.2077298902e-13 9.3191418691e-13 -1.1400790389e-13 -3.1031937289e-16 2.671428567e-15
          -5.440151911e-16 4.1751274133e-17 0 0.16738030441 0.16437354159 0.15526865712
          0.14078990792 0.12259627566 0.10251398291 0.082138710249 0.062773511848 0.04546844629
          0.030996561527 0.019755338139 0.011700848597 0.0064049661604 0.0032222168777 0.0014803379548
          0.0006161531743 0.00022995782356 7.5900560315e-05 2.1741068718e-05 5.2611642461e-06 1.0322545104e-06
          1.5287859912e-07 1.4567069884e-08 4.2211919353e-10 -6.7489109533e-11 -1.8407807824e-12 7.6849604932e-13
          -5.7513339299e-14 -4.3192096248e-15 2.0051640316e-15 -3.1837785274e-16 1.5962990927e-17 0
          0.12540299794 0.12352762532 0.11743984808 0.10718121189 0.093748282139 0.078469732388
          0.062672513699 0.047553053664 0.034095036533 0.022972132501 0.014467821588 0.0084751552253
          0.0045956663257 0.002295035593 0.0010492351586 0.00043584413194 0.00016289151498 5.4062272989e-05
          1.5652997044e-05 3.85589695e-06 7.7823623348e-07 1.207730629e-07 1.2616982422e-08 5.4573058714e-10
          -4.3666842008e-11 -3.2430698459e-12 5.4827902132e-13 -1.5963454562e-14 -5.8000509261e-15 1.3446560991e-15
          -1.5372706559e-16 -2.3112620461e-19 0 0.089740954163 0.088699603129 0.084822477814
          0.07773547663 0.068050267462 0.056774696234 0.04501077946 0.033784387439 0.023910234193
          0.015890022626 0.0098761117319 0.0057179686938 0.0030711209144 0.0015231093216 0.00069357422829
          0.00028791075668 0.00010793056089 3.6086792529e-05 1.0582458212e-05 2.6589756427e-06 5.5301565408e-07
          8.9971734031e-08 1.024001785e-08 5.7892447884e-10 -2.2038130768e-11 -3.5984292912e-12 3.2336654985e-13
          9.263683215e-15 -5.3923455685e-15 7.6786299974e-16 -4.8210662155e-17 -7.965983116e-18 0
          0.060468961332 0.060037278004 0.057737935871 0.052987739193 0.046220946035 0.038248082702
          0.029964969028 0.022173226533 0.015456809261 0.010122247452 0.0062089822634 0.003556022732
          0.0018946869191 0.00093509642196 0.00042517090698 0.00017685980936 6.6698181905e-05 2.253471574e-05
          6.7136853112e-06 1.7257642228e-06 3.7083488622e-07 6.3341768523e-08 7.8246656654e-09 5.4292268397e-10
          -5.105015302e-12 -3.2067395581e-12 1.3331643012e-13 2.0286825964e-14 -3.9247227624e-15 3.2405440874e-16
          8.6277599489e-18 -9.5894069514e-18 0 0.037573084341 0.037565636324 0.036305848869
          0.03320936302 0.028689272989 0.02341513341 0.018055064285 0.013144675107 0.0090242736694
          0.0058321050306 0.0035401373271 0.0020128162573 0.0010683356049 0.00052709793678 0.00024044728667
          0.00010071796425 3.8398844453e-05 1.317338926e-05 4.0062435383e-06 1.0583493583e-06 2.3595092306e-07
          4.2448958926e-08 5.6880258743e-09 4.6867664594e-10 6.3610075758e-12 -2.4389014068e-12 -2.4434789993e-15
          2.1354231293e-14 -2.1589892594e-15 2.9259795598e-17 3.0693517402e-17 -7.6919073254e-18 0
          0.02089922836 0.021135059248 0.020413579619 0.018427204261 0.015636965189 0.012532145405
          0.0095067578089 0.0068292767461 0.0046425192402 0.0029820645734 0.0018060385101 0.0010284212149
          0.00054868924905 0.00027308028149 0.00012609043015 5.3643757723e-05 2.0847406178e-05 7.3202419421e-06
          2.2898112944e-06 6.2617984375e-07 1.4581107867e-07 2.7784912431e-08 4.0471509484e-09 3.8832197339e-10
          1.2998424583e-11 -1.6372910864e-12 -8.4006353251e-14 1.7452596132e-14 -6.3834244359e-16 -1.3329631145e-16
          3.2291459743e-17 -4.5041526021e-18 0 0.010207816363 0.010442843743 0.0098029175736
          0.0086262948757 0.0072060362249 0.0057333556248 0.0043465609068 0.0031372286112 0.0021524251007
          0.001400765998 0.00086239274923 0.00050066487671 0.00027302713113 0.00013920333758 6.5981633022e-05
          2.8876293183e-05 1.1570283888e-05 4.200245909e-06 1.3631256955e-06 3.8860133737e-07 9.498679109e-08
          1.920525444e-08 3.0257145776e-09 3.285710305e-10 1.6146993447e-11 -1.0569922285e-12 -1.2360581363e-13
          1.306825865e-14 3.4296062374e-16 -2.029001532e-16 2.6512946544e-17 -1.7564563716e-18 0
          0.0053512441464 0.0056759425688 0.0053825895483 0.0048413358564 0.0041381925122 0.0033682828302
          0.0026119398247 0.0019283849471 0.0013535216556 0.00090126084801 0.00056774866203 0.00033722832672
          0.00018811060523 9.8075301844e-05 4.7523677652e-05 2.125805833e-05 8.706158921e-06 3.2314350673e-06
          1.0730450448e-06 3.1342286187e-07 7.8668969165e-08 1.6394213843e-08 2.6801463623e-09 3.0668057689e-10
          1.7034126737e-11 -8.4748551072e-13 -1.348846374e-13 1.1249956961e-14 6.7669347148e-16 -2.2027773144e-16
          2.3302316927e-17 -6.9363984961e-19 0
        </DataArray>
        <DataArray type="Float64" Name="pressure" format="ascii" RangeMin="-0.047380781664" RangeMax="1.1874691872">
          1.1874691872 1.1834992499 1.1758496895 1.1665456156 1.1562596063 1.1454878495
          1.1345842712 1.1238035035 1.11332966 1.1032961577 1.0937996144 1.0849094083
          1.0766739886 1.0691248121 1.0622786147 1.0561385852 1.0506949059 1.0459250693
          1.0417943647 1.0382569209 1.0352576524 1.0327353023 1.0306264677 1.0288700538
          1.0274112505 1.0262041331 1.0252124638 1.0244089505 1.0237736657 1.0232923531
          1.0229550544 1.0227551817 1.0226889668 1.129279653 1.1272480846 1.1220154345
          1.1148579743 1.1066009947 1.0977638189 1.0887041214 1.0796741607 1.0708530757
          1.0623683578 1.0543106216 1.0467436195 1.0397108351 1.0332396829 1.0273441011
          1.022026131 1.0172769421 1.013077674 1.0094003994 1.0062094503 1.0034632516
          1.0011166597 0.99912362692 0.99743985002 0.99602499984 0.99484420835 0.99386868804
          0.99307558743 0.99244735039 0.99197088782 0.99163679952 0.99143876845 0.99137315456
          1.0763509621 1.0749047089 1.0708419196 1.0650628035 1.058280781 1.0509630579
          1.0434316972 1.0359097517 1.0285517827 1.0214652765 1.0147251232 1.008383032
          1.0024735007 0.99701756004 0.99202513273 0.98749657063 0.98342377046 0.97979116424
          0.97657680116 0.97375365188 0.97129116212 0.96915696987 0.96731861187 0.96574502125
          0.96440767119 0.96328131405 0.96234434454 0.96157885585 0.96097047315 0.96050805664
          0.96018336389 0.95999074256 0.95992689642 1.0265083882 1.025374791 1.0220716342
          1.0172649284 1.0115845885 1.0054612656 0.99918055829 0.99292963959 0.98683140125
          0.98096759454 0.97539327863 0.97014534328 0.9652474853 0.96071319886 0.95654766123
          0.95274901225 0.94930934653 0.94621564263 0.94345077388 0.9409946535 0.93882546708
          0.93692086504 0.93525896502 0.93381906609 0.93258207841 0.9315307557 0.93064983317
          0.92992612706 0.92934859795 0.92890836018 0.92859863566 0.92841467268 0.92835366144
          0.97894921938 0.97802652323 0.97529980262 0.97125001504 0.96645013952 0.96130883873
          0.95607781406 0.95090724078 0.94588807712 0.94107771692 0.9365134663 0.93221924569
          0.92820918104 0.92448982716 0.92106170036 0.91792041369 0.91505761019 0.91246184819
          0.9101195281 0.90801585927 0.90613577657 0.90446467236 0.9029888383 0.90169560645
          0.90057328857 0.89961106899 0.89879897706 0.89812797874 0.89759014571 0.89717883026
          0.89688879405 0.89671627713 0.89665902218 0.93321554018 0.93245537502 0.93019598601
          0.92678052997 0.92272579325 0.91842503622 0.91409971785 0.90986205607 0.90577191858
          0.90186610172 0.89816890518 0.89469537532 0.89145291461 0.88844277097 0.88566147284
          0.88310209622 0.88075535614 0.87861058312 0.87665662596 0.87488265145 0.87327874857
          0.87183623701 0.87054764348 0.86940641439 0.86840652321 0.86754215006 0.86680755085
          0.86619713163 0.86570566087 0.86532852316 0.86506193997 0.86490312522 0.86485037748
          0.88898310369 0.88835599544 0.88649212736 0.88363835545 0.88024441438 0.87668746834
          0.87316123569 0.86973970154 0.8664541763 0.86332600795 0.86037166745 0.8576013496
          0.85501849969 0.85262076435 0.85040157083 0.84835175459 0.84646098857 0.84471895857
          0.8431162801 0.84164512898 0.84029953367 0.83907529984 0.83796961097 0.8369804373
          0.8361059387 0.83534403036 0.83469220137 0.8341475763 0.8337071374 0.83336800376
          0.8331276878 0.83298428981 0.83293662455 0.84599477073 0.84548171615 0.84396707537
          0.84163239478 0.83884764037 0.83596798581 0.83315915856 0.8304577308 0.82787187285
          0.82541388801 0.82309699559 0.82092946338 0.81891272478 0.81704216206 0.81530899658
          0.81370236707 0.81221114935 0.81082534722 0.8095370121 0.8083406906 0.80723341953
          0.80621432608 0.80528395188 0.80444347392 0.80369400783 0.80303613484 0.80246970844
          0.80199390851 0.80160745395 0.80130887441 0.80109676582 0.80096999122 0.80092781725
          0.80403407291 0.8036233556 0.80243108539 0.80059517829 0.79839464093 0.79614772813
          0.79399031151 0.791926688 0.78995058333 0.78807163668 0.78630316929 0.78465331335
          0.78312270547 0.78170546261 0.7803914548 0.77916880602 0.77802605041 0.77695368499
          0.77594505372 0.77499660596 0.77410763157 0.77327961556 0.77251538794 0.77181825784
          0.771191298 0.7706368843 0.77015651391 0.76975085347 0.76941992988 0.76916337429
          0.76898065446 0.76887126129 0.76883483914 0.76291029119 0.76259526987 0.76171348039
          0.76037559516 0.75875932681 0.75711452148 0.75555215132 0.75405537915 0.75261194918
          0.75123465222 0.74993936563 0.7487351621 0.74762266994 0.74659552317 0.74564301953
          0.74475295129 0.74391399422 0.74311734431 0.7423575313 0.74163250162 0.74094315118
          0.74029252045 0.73968486267 0.73912477025 0.7386164951 0.73816353017 0.73776844881
          0.73743294498 0.73715799367 0.73694405611 0.736791277 0.73669964544 0.73666910981
          0.72244938627 0.72222636246 0.72165295737 0.72082622797 0.71981534383 0.71874867682
          0.7177384626 0.71674799349 0.71577156702 0.71483123232 0.71394664329 0.71312831891
          0.71237739277 0.71168765179 0.71104849907 0.71044799109 0.7098753482 0.70932260645
          0.70878534537 0.70826262958 0.70775640734 0.7072706267 0.70681029575 0.70638065504
          0.70598656411 0.70563213624 0.70532059926 0.70505432341 0.70483494658 0.7046635362
          0.70454074679 0.70446695078 0.7044423336 0.68248984676 0.68235621654 0.6820937383
          0.68179121242 0.68141266868 0.68093336375 0.68043246228 0.6798936081 0.67933239417
          0.67877952799 0.67825765267 0.67777882313 0.6773451797 0.67695131636 0.67658739468
          0.67624226982 0.67590603822 0.67557166477 0.67523563493 0.67489780513 0.67456073676
          0.67422880225 0.67390728974 0.67360165231 0.67331697171 0.67305764537 0.6728272634
          0.67262861999 0.67246380207 0.67233430841 0.67224116806 0.67218504109 0.67216629316
          0.64288277347 0.64283648751 0.64289123735 0.64311455068 0.64336675013 0.64349710812
          0.64347447602 0.64335574267 0.64318279908 0.64298890607 0.64279953947 0.64262914395
          0.64248191008 0.6423542001 0.64223772546 0.64212272063 0.6420005032 0.64186507888
          0.64171375378 0.64154695376 0.64136756056 0.64118006277 0.64098973954 0.6408019999
          0.64062192246 0.64045398746 0.64030196339 0.64016889991 0.64005718195 0.63996861005
          0.63990448388 0.6398656755 0.6398526851 0.60349449026 0.60353583642 0.60392554326
          0.60466953317 0.60551158353 0.60621282193 0.6066767995 0.60699177865 0.60721019315
          0.60736990988 0.60750162839 0.60762437064 0.60774615359 0.60786646112 0.60797955689
          0.60807775577 0.60815403196 0.60820364077 0.60822474418 0.60821826251 0.60818727186
          0.60813624288 0.60807032457 0.60799477678 0.60791457911 0.60783419955 0.60775748622
          0.60768764275 0.60762725278 0.60757832803 0.60754236288 0.6075203846 0.60751299282
          0.5642079001 0.56434643475 0.565117769 0.5663832687 0.56776386084 0.56898029633
          0.56993703776 0.5707024416 0.57132739115 0.57185015776 0.57230585603 0.57271948997
          0.57310444099 0.57346463606 0.57379792735 0.57409947734 0.5743644458 0.57458966779
          0.57477434216 0.57491996955 0.57502985871 0.5751084842 0.57516088278 0.57519217787
          0.57520725059 0.57521053912 0.57520593473 0.57519674361 0.5751856889 0.57517493432
          0.57516611649 0.57516037718 0.5751583899 0.52493317431 0.52517893642 0.52646179087
          0.52824583479 0.53011857639 0.5318189009 0.53324978628 0.53445696549 0.53549245037
          0.53638770278 0.53717583359 0.53788558795 0.53853554596 0.53913461056 0.53968491768
          0.54018513222 0.54063314149 0.54102777536 0.54136957427 0.54166084372 0.54190529907
          0.54210756161 0.54227267468 0.54240571855 0.54251153969 0.54259457926 0.54265877641
          0.542707523 0.5427436514 0.54276944175 0.5427866387 0.54279647083 0.5427996676
          0.48522960833 0.48618155339 0.48804374841 0.49030280296 0.49261994623 0.49476310999
          0.49663943688 0.49827166922 0.49970754548 0.50097513102 0.50210116286 0.50311327482
          0.50403293289 0.50487326982 0.50564072364 0.50633779886 0.50696554141 0.50752519537
          0.50801901048 0.50845040705 0.5088237662 0.50914407171 0.50941654932 0.50964637202
          0.50983844771 0.50999727959 0.51012688233 0.51023073746 0.51031177518 0.51037237277
          0.51041436198 0.51043904009 0.51044718049 0.44627622431 0.44768528414 0.450015151
          0.45265100409 0.45534274637 0.45787505446 0.46015576814 0.46218742086 0.46400528905
          0.46563476912 0.46709633529 0.46841276147 0.46960503743 0.47068868109 0.47167369878
          0.47256633631 0.4733710092 0.47409170525 0.47473273201 0.47529894729 0.47579567839
          0.47622850568 0.47660302505 0.47692464526 0.47719843707 0.47742903081 0.47762055212
          0.47777658574 0.47790015861 0.47799373583 0.47805922387 0.47809797723 0.47811080529
          0.40893606803 0.41005422294 0.41253337284 0.41541920157 0.41838740261 0.4212398808
          0.42387177264 0.42626495888 0.42843815945 0.43041032137 0.43219586782 0.4338110645
          0.43527351995 0.43659886972 0.43779942381 0.43888465878 0.43986229693 0.44073922937
          0.44152206669 0.44221736175 0.44283162316 0.44337122691 0.44384229805 0.44425060133
          0.44460145559 0.44489967363 0.44514952381 0.44535470817 0.44551835269 0.44564300561
          0.44573064051 0.44578266155 0.44579990872 0.37247182636 0.37341696998 0.37575676899
          0.37872785617 0.38186819363 0.38495677067 0.3878747731 0.39058013169 0.39307219318
          0.39535909477 0.39744782185 0.39934731884 0.40106993504 0.40262941349 0.4040389409
          0.40531043813 0.40645460616 0.40748117934 0.40839914377 0.40921687138 0.40994218441
          0.41058237405 0.41114419307 0.41163383766 0.41205692841 0.41241849551 0.41272296967
          0.41297417862 0.41317534794 0.41332910498 0.41343748451 0.41350193461 0.41352332182
          0.33684155537 0.3376509659 0.33978696649 0.34268680783 0.3458901675 0.34912711264
          0.35225726579 0.35521567312 0.35798031513 0.36054500094 0.36290701979 0.36506713999
          0.36703138746 0.36881020009 0.37041637585 0.37186338819 0.37316437371 0.37433161356
          0.37537632615 0.37630864691 0.37713770241 0.377871711 0.37851807209 0.37908343151
          0.37957372545 0.37999420981 0.38034948073 0.38064349023 0.38087955904 0.38106038759
          0.38118806548 0.38126407931 0.38128931856 0.30200513956 0.30270858152 0.30463486771
          0.30737922807 0.31054204287 0.3138398502 0.31710563149 0.32025153173 0.32323436249
          0.32603146301 0.32862835817 0.33101673898 0.33319576411 0.3351717767 0.33695624853
          0.33856333968 0.34000792543 0.34130431378 0.34246558675 0.34350339295 0.3444279995
          0.34524844785 0.3459727186 0.34660786566 0.34716011339 0.34763492395 0.34803704385
          0.34837053686 0.34863880793 0.34884462106 0.34899011276 0.3490768021 0.34910559774