<?xml version="1.0"?>
<VTKFile type="UnstructuredGrid" version="0.1" byte_order="LittleEndian" header_type="UInt32">
  <UnstructuredGrid>
    <Piece NumberOfPoints="1089" NumberOfCells="1024">
      <PointData>
        <DataArray type="Float64" Name="concentration" format="ascii" RangeMin="0" RangeMax="1">
          1 0.97292129709 0.94508263865 0.91654744391 0.88738203272 0.85765483186
          0.82743553133 0.79679419886 0.76580036083 0.73452205882 0.7030248911 0.67137104849
          0.6396183544 0.60781931862 0.57602021443 0.54426018823 0.51257041083 0.48097327881
          0.4494816742 0.41809829 0.38681502859 0.35561247947 0.32445948216 0.29331277933
          0.26211676482 0.23080333035 0.19929181407 0.16748905366 0.13528954567 0.10257571246
          0.069218277156 0.035076746407 0 1 0.97291440816 0.94506872703
          0.91652645387 0.88735398898 0.85761984072 0.82739378066 0.79674595682 0.76574597346
          0.73446194654 0.70295954416 0.6713010216 0.63954426057 0.60774182243 0.5759400248
          0.54417805094 0.51248710081 0.48088959247 0.44939842181 0.41801628826 0.38673509349
          0.35553541946 0.32438609169 0.29324383279 0.26205301084 0.23074548646 0.19924056167
          0.16744503322 0.13525335219 0.102547891 0.069199318471 0.035067082567 0
          1 0.9728924762 0.94502443953 0.91645963793 0.88726472991 0.85750848551
          0.82726093756 0.79659249087 0.76557299825 0.73427081244 0.70275182335 0.67107849023
          0.63930887863 0.60749571169 0.57568544542 0.54391737715 0.51222279625 0.48062418546
          0.44913448113 0.4177563996 0.38648183695 0.35529134816 0.32415371173 0.29302558444
          0.26185125108 0.23056247263 0.19907843621 0.16730580921 0.13513889952 0.10245992296
          0.069139378449 0.035036530793 0 1 0.9728515332 0.94494177114
          0.91633493836 0.88709818329 0.85730077177 0.82701323017 0.79630644688 0.76525074096
          0.73391490722 0.70236524733 0.67066459677 0.63887135744 0.60703854564 0.5752128651
          0.54343381409 0.51173283584 0.48013252037 0.44864586598 0.41727560751 0.38601361836
          0.35484039237 0.32372461112 0.29262280158 0.26147908842 0.23022504458 0.19877964332
          0.16704931392 0.13492810306 0.10229794287 0.069029026241 0.034980289301 0
          1 0.97278436383 0.94480617038 0.91613044668 0.88682516557 0.85696042394
          0.82660757237 0.79583830287 0.76472370459 0.73333329722 0.70173405179 0.66998940902
          0.63815830512 0.60629421492 0.5744442218 0.54264812377 0.51093758424 0.47933533599
          0.4478544458 0.41649764705 0.38525674663 0.35411211218 0.32303224489 0.29197344244
          0.26087955631 0.2296818467 0.19829893814 0.16663687796 0.13458929935 0.10203769025
          0.068851768404 0.034889962723 0 1 0.97267950245 0.94459452271
          0.91581138932 0.88639940392 0.85643000012 0.82597584615 0.79510990975 0.76390449237
          0.73243024309 0.70075516298 0.66894361017 0.63705531586 0.60514442109 0.57325854383
          0.54143788531 0.50971438405 0.47811092543 0.44664061401 0.41530611514 0.38409907195
          0.35299960296 0.32197588519 0.29098382683 0.25996683333 0.22885566984 0.19756842277
          0.16601056248 0.13407510879 0.10164290041 0.068582968792 0.034753016579 0
          1 0.97251958518 0.94427185366 0.91532520415 0.88575106283 0.85562297711
          0.8250156863 0.79400414494 0.76266252019 0.73106317457 0.69927564483 0.66736562764
          0.63539398271 0.60341576318 0.57147928236 0.53962522531 0.5078858128 0.47628402468
          0.4448328889 0.4135348417 0.38238116408 0.35135149885 0.32041345238 0.28952228432
          0.25862068861 0.22763866815 0.19649350572 0.1650898327 0.1333197975 0.10106333449
          0.068188534335 0.034552115977 0 1 0.97227872591 0.94378604045
          0.91459370112 0.88477648037 0.854411276 0.82357606759 0.79234887531 0.76080670003
          0.7290244557 0.69707390928 0.66502264027 0.63293303028 0.60086129161 0.56885654285
          0.53695993858 0.50520385881 0.4736111635 0.44219451624 0.41095578085 0.37988549429
          0.34896241869 0.31815317523 0.28741196237 0.25668036065 0.2258872262 0.19494867491
          0.16376815902 0.13223663761 0.10023284238 0.067623639613 0.034264489058 0
          1 0.97191815423 0.94305927302 0.91350033432 0.88332163281 0.85260535172
          0.82143453723 0.78989193227 0.75805880213 0.72601378788 0.69383179431 0.66158292133
          0.62933144816 0.59713487811 0.5650430489 0.53309731161 0.50132978006 0.46976265152
          0.43840759938 0.40726523815 0.37632466138 0.34556305319 0.31494537451 0.28442412525
          0.25393918425 0.22341772851 0.19277423389 0.16191055905 0.13071611463 0.09906811926
          0.066831944183 0.03386154763 0 1 0.97137913317 0.9419732069
          0.91186876509 0.88115449877 0.84992122158 0.81826003964 0.78626094601 0.75401153181
          0.72159573547 0.6890926623 0.65657549983 0.6241105357 0.5917562756 0.5595626557
          0.52757034308 0.49581011698 0.46430232403 0.4330564014 0.40207046309 0.37133094611
          0.34081231517 0.31047682569 0.28027434634 0.250142243 0.22000532688 0.1897758695
          0.15935368769 0.12862630145 0.097469167359 0.065745990202 0.033309114805 0
          1 0.97056832937 0.94034358625 0.90942427804 0.87791582631 0.84592296903
          0.81354938366 0.78089619766 0.74806026147 0.71513267284 0.68219757591 0.64933117642
          0.61660093433 0.58406490984 0.5517712391 0.51975771356 0.4880514371 0.45666853858
          0.42561392356 0.39488105492 0.36445175772 0.33429604789 0.30437198741 0.2746255705
          0.24499064636 0.21538888432 0.18572978721 0.15591075837 0.12581722719 0.095322837273
          0.064289701113 0.032568724041 0 1 0.96933774375 0.93786408893
          0.90571911864 0.87302692304 0.83991600291 0.80651179047 0.77293255945 0.73928768642
          0.70567652057 0.6721874924 0.63889751503 0.60587170361 0.57316335073 0.54081405784
          0.50885392908 0.47730175995 0.446165182 0.41544074759 0.38511395457 0.35515922028
          0.32553981888 0.29620779767 0.26710388772 0.23815742292 0.20928627982 0.18039684875
          0.1513840447 0.12213136512 0.09251100008 0.062383998855 0.03160049615 0
          1 0.96739618534 0.9340138919 0.89997870208 0.8654920596 0.8307293461
          0.79584620465 0.76098300491 0.72626347255 0.69179278594 0.65765717154 0.62392488483
          0.5906479011 0.55786374243 0.52559710622 0.49386115451 0.46265844209 0.4319815205
          0.40181327793 0.37212707827 0.34288675678 0.31404652055 0.28555079298 0.25733403271
          0.22932055063 0.20142434264 0.17354895148 0.14558736725 0.11742197336 0.088924542516
          0.059956285611 0.030367954648 0 1 0.96432725847 0.92770530843
          0.89068399788 0.85346282525 0.81625750516 0.77928303129 0.74271745467 0.70669098179
          0.67129059072 0.63656955915 0.60255667583 0.56926341026 0.53668889464 0.50482310697
          0.47364873239 0.44314211211 0.41327359016 0.3840074782 0.3553017906 0.32710785209
          0.2993698464 0.27202435115 0.24499988843 0.21821651019 0.19158543028 0.16500871047
          0.13837900411 0.11157935901 0.084483079288 0.056953644562 0.028844683773 0
          1 0.95827733823 0.91674699227 0.87477300846 0.83306092046 0.7922001534
          0.75249929321 0.71406901666 0.6769111781 0.6409763259 0.60619525581 0.57249462199
          0.53980375956 0.50805694267 0.4771933898 0.44715623337 0.41789107796 0.38934445879
          0.36146234973 0.33418878711 0.30746463367 0.28122648658 0.25540572406 0.22992768139
          0.20471094573 0.17966675972 0.15469852401 0.12970138993 0.10456193392 0.079157905895
          0.053358043842 0.027021947065 0 1 0.94941049686 0.89424394599
          0.84186454895 0.79356140596 0.74901610024 0.70761178677 0.66878128992 0.6320732875
          0.59714340173 0.56373084107 0.53163669191 0.50070691955 0.47081970095 0.44187607756
          0.41379301407 0.38649817513 0.35992593245 0.33401426326 0.30870230459 0.28392839881
          0.25962851459 0.23573496024 0.21217532955 0.18887163605 0.16573960271 0.14268808207
          0.11961858703 0.096424916757 0.072992864298 0.049199994614 0.024915482461 0
          1 0.88893517785 0.81595315227 0.76052636939 0.71428867951 0.67349669998
          0.63629488123 0.60166709971 0.56900640948 0.53792392335 0.50815637546 0.47951748306
          0.45187029111 0.42511034606 0.39915485319 0.37393534404 0.34939251161 0.32547244501
          0.30212380315 0.27929564085 0.25693570299 0.23498906441 0.21339703287 0.19209625736
          0.17101800093 0.1500875483 0.1292237263 0.10833852003 0.087336771624 0.066115950497
          0.044565985695 0.022569151779 0 0.6379023311 0.65201060954 0.63993968991
          0.61844217717 0.59362619662 0.56781003995 0.54190879958 0.51629493125 0.4911214778
          0.4664490139 0.44229776154 0.41866979586 0.3955586961 0.37295367539 0.35084118565
          0.32920533719 0.30802775907 0.28728720445 0.2669590529 0.2470147872 0.22742148483
          0.20814134446 0.18913125767 0.17034243054 0.1517200567 0.13320304207 0.11472378009
          0.096207976363 0.077574520726 0.058735404868 0.039595683162 0.020053474178 0
          0.50112730425 0.49554759849 0.4910225089 0.48316212728 0.47192825528 0.45814192308
          0.44259450328 0.42588530492 0.40843881126 0.39055108807 0.37242950017 0.35422087064
          0.33603025698 0.31793321777 0.29998379259 0.28221970328 0.26466575457 0.24733606149
          0.23023550649 0.21336068783 0.19670053092 0.18023667726 0.16394372805 0.14778939577
          0.13173460032 0.11573353574 0.099733726025 0.083676083018 0.067494976302 0.051118321944
          0.034467695359 0.017458472173 0 0.38589308825 0.38574389296 0.38256117877
          0.37762638377 0.37103006296 0.36283931044 0.35322829946 0.34242663972 0.33066903286
          0.31816912559 0.30511029324 0.29164502962 0.27789785434 0.26396918633 0.24993907314
          0.23587038003 0.22181136452 0.20779769067 0.19385397696 0.17999497415 0.16622645822
          0.15254590818 0.13894302492 0.1254001349 0.11189251283 0.098388650051 0.084850489341
          0.071233642368 0.057487602828 0.043555965571 0.029376660316 0.014882207126 0
          0.29944982331 0.29865315138 0.29688710683 0.29384989508 0.28961835808 0.28428578554
          0.27794264222 0.27068824854 0.26263175196 0.25388654248 0.24456388333 0.23476814042
          0.224593945 0.21412487961 0.20343316231 0.19257990391 0.18161564815 0.170581017
          0.15950736117 0.14841736628 0.13732559458 0.12623895953 0.11515713884 0.10407293611
          0.092972602478 0.081836129603 0.070637524921 0.059345078867 0.047921633039 0.03632485728
          0.024507543002 0.012417919536 0 0.23031265114 0.22995069211 0.22871638257
          0.22668691994 0.22386249784 0.22026674435 0.21594159797 0.21093920169 0.2053181649
          0.19914127769 0.19247331035 0.18537881182 0.17792013915 0.17015588185 0.16213971881
          0.15391966341 0.14553761816 0.13702915766 0.12842347008 0.1197434034 0.11100557801
          0.10222053984 0.093392937714 0.084521715771 0.075600316356 0.066616892297 0.057554529424
          0.048391481644 0.039101421732 0.029653711528 0.02001369561 0.010143022787 0
          0.17552523677 0.17524040339 0.17441516456 0.17302646721 0.17108362213 0.16860024578
          0.16559606178 0.16209738755 0.15813598196 0.15374756968 0.14897044394 0.14384418199
          0.1384084669 0.13270203181 0.12676174949 0.12062188059 0.11431347973 0.10786394702
          0.10129670622 0.094630988925 0.087881705203 0.081059383832 0.074170168417 0.067215859034
          0.060193991817 0.053097951411 0.045917113125 0.038637013204 0.03123954684 0.023703194474
          0.016003277662 0.0081122463697 0 0.13218768457 0.13199933732 0.13142322032
          0.13045987134 0.12910873889 0.1273753737 0.12527008648 0.12280717476 0.12000440981
          0.11688243749 0.11346408375 0.10977362612 0.10583607637 0.10167650049 0.09731939268
          0.092788114702 0.088104407735 0.083287979476 0.078356165687 0.073323662495 0.068202324082
          0.063001019635 0.057725543441 0.052378572516 0.046959666937 0.041465308918 0.035888977636
          0.030221257605 0.024449979206 0.018560390628 0.012535361017 0.0063556151139 0
          0.098274986488 0.098141820794 0.097741581345 0.097069532414 0.096125469909 0.094911770627
          0.093433613607 0.09169882737 0.089717580292 0.08750202688 0.085065923136 0.082424216141
          0.079592620162 0.076587193817 0.073423931176 0.070118376975 0.066685273558 0.063138244849
          0.059489520674 0.055749703038 0.051927574621 0.048029948725 0.044061559241 0.04002498887
          0.03592063366 0.031746702029 0.027499246587 0.023172227322 0.018757605002 0.014245463894
          0.0096241631698 0.0048805165619 0 0.072076333039 0.071984106409 0.071705109634
          0.071236761827 0.070577971267 0.069729612287 0.068694353351 0.067476538974 0.066082045865
          0.064518095995 0.062793037171 0.060916101588 0.058897150436 0.056746411979 0.054474220211
          0.052090760611 0.049605828689 0.047028605996 0.044367457267 0.041629751423 0.038821708293
          0.035948272211 0.033013013037 0.030018054716 0.026964031149 0.023850068941 0.020673796464
          0.017431378601 0.014117576546 0.010725832032 0.0072483753723 0.0036763567285 0
          0.052159455751 0.052095376828 0.051901864769 0.051576687536 0.051118881549 0.050528627187
          0.04980725151 0.048957170921 0.047981804961 0.046885468737 0.045673245794 0.044350844712
          0.042924443737 0.041400527895 0.0397857229 0.038086629936 0.036309665077 0.034460906721
          0.032545953929 0.030569798142 0.028536710221 0.026450144361 0.024312659995 0.022125862478
          0.019890363026 0.01760575816 0.015270628682 0.012882558082 0.010438170127 0.0079331852772
          0.0053624955077 0.002720256989 0 0.037310037952 0.037265813949 0.037132136464
          0.036907427266 0.036590830789 0.036182248348 0.035682314543 0.035092366102 0.034414394669
          0.03365098413 0.032805234779 0.031880676521 0.030881173409 0.029810821966 0.028673845828
          0.02747448925 0.026216911899 0.024905087197 0.023542706324 0.022133089697 0.020679107565
          0.019183111056 0.01764687479 0.016071551945 0.014457642419 0.012804974562 0.011112700752
          0.0093793069305 0.0076026360865 0.0057799255152 0.0039078575763 0.0019826235422 0
          0.02651620113 0.026485695229 0.026393487315 0.026238418527 0.026019812931 0.025737473132
          0.025391675548 0.02498315241 0.024513063706 0.023982959833 0.023394735721 0.02275057757
          0.02205290352 0.021304299723 0.020507453327 0.019665083934 0.01877987508 0.017854407222
          0.016891093676 0.015892120794 0.014859393581 0.013794487804 0.012698609481 0.011572562531
          0.010416725168 0.0092310355234 0.0080149868123 0.0067676322444 0.0054875997417 0.0041731164108
          0.0028220425959 0.0014319152191 0 0.018958962458 0.018937717831 0.018873487335
          0.018765434939 0.018613033758 0.018416070996 0.01817464361 0.017889148069 0.017560263585
          0.017188929213 0.016776315371 0.016323790426 0.015832883144 0.015305241829 0.014742591126
          0.01414668744 0.013519273963 0.01286203632 0.012176559753 0.011464288787 0.0107264902
          0.0099642200773 0.0091782956345 0.0083692723964 0.0075374272287 0.0066827476172 0.0058049274882
          0.0049033697642 0.0039771957478 0.0030252613273 0.0020461799 0.0010383518102 0
          0.01400729343 0.013991951839 0.013945563085 0.013867502565 0.013757356764 0.01361492522
          0.013440218775 0.013233453198 0.012995038529 0.012725564328 0.012425781126 0.012096578469
          0.011738960051 0.011354016467 0.010942896209 0.010506775516 0.010046827778 0.0095641931287
          0.0090599489099 0.0085350816478 0.0079904611429 0.0074268172453 0.0068447198259 0.0062445623999
          0.0056265497879 0.0049906901359 0.0043367915374 0.0036644634288 0.002973122849 0.0022620055776
          0.001530182088 0.00077657816999 0 0.011214030931 0.011201959875 0.011165456093
          0.011104016566 0.011017296023 0.010905109126 0.010767429278 0.010604384253 0.010416248628
          0.010203433166 0.0099664713631 0.0097060034134 0.0094227579537 0.0091175319558 0.0087911692095
          0.0084445378621 0.0080785075008 0.0076939262824 0.0072915986081 0.0068722638389 0.0064365765237
          0.0059850885849 0.0055182338731 0.0050363154561 0.004539495963 0.0040277912483 0.0035010675837
          0.0029590425277 0.0024012895556 0.0018272464738 0.001236227571 0.00062743939839 0
          0.010312480347 0.0103014553 0.010268113436 0.010211991013 0.010132765607 0.010030257983
          0.0099044312063 0.0097553868367 0.0095833583038 0.0093887015589 0.0091718831836 0.0089334661914
          0.0086740938143 0.0083944716161 0.008095348314 0.00777749572 0.0074416882397 0.0070886823732
          0.006719196672 0.0063338925928 0.0059333566812 0.005518084488 0.0050884665965 0.0046447770965
          0.0041871648016 0.0037156474572 0.0032301091331 0.0027303009422 0.0022158451669 0.0016862428139
          0.0011408845617 0.00057906500019 0
        </DataArray>
        <DataArray type="Float64" Name="pressure" format="ascii" RangeMin="0" RangeMax="1">
          1 0.96875 0.9375 0.90625 0.875 0.84375
          0.8125 0.78125 0.75 0.71875 0.6875 0.65625
          0.625 0.59375 0.5625 0.53125 0.5 0.46875
          0.4375 0.40625 0.375 0.34375 0.3125 0.28125
          0.25 0.21875 0.1875 0.15625 0.125 0.09375
          0.0625 0.03125 0 1 0.96875 0.9375
          0.90625 0.875 0.84375 0.8125 0.78125 0.75
          0.71875 0.6875 0.65625 0.625 0.59375 0.5625
          0.53125 0.5 0.46875 0.4375 0.40625 0.375
          0.34375 0.3125 0.28125 0.25 0.21875 0.1875
          0.15625 0.125 0.09375 0.0625 0.03125 0
          1 0.96875 0.9375 0.90625 0.875 0.84375
          0.8125 0.78125 0.75 0.71875 0.6875 0.65625
          0.625 0.59375 0.5625 0.53125 0.5 0.46875
          0.4375 0.40625 0.375 0.34375 0.3125 0.28125
          0.25 0.21875 0.1875 0.15625 0.125 0.09375
          0.0625 0.03125 0 1 0.96875 0.9375
          0.90625 0.875 0.84375 0.8125 0.78125 0.75
          0.71875 0.6875 0.65625 0.625 0.59375 0.5625
          0.53125 0.5 0.46875 0.4375 0.40625 0.375
          0.34375 0.3125 0.28125 0.25 0.21875 0.1875
          0.15625 0.125 0.09375 0.0625 0.03125 0
          1 0.96875 0.9375 0.90625 0.875 0.84375
          0.8125 0.78125 0.75 0.71875 0.6875 0.65625
          0.625 0.59375 0.5625 0.53125 0.5 0.46875
          0.4375 0.40625 0.375 0.34375 0.3125 0.28125
          0.25 0.21875 0.1875 0.15625 0.125 0.09375
          0.0625 0.03125 0 1 0.96875 0.9375
          0.90625 0.875 0.84375 0.8125 0.78125 0.75
          0.71875 0.6875 0.65625 0.625 0.59375 0.5625
          0.53125 0.5 0.46875 0.4375 0.40625 0.375
          0.34375 0.3125 0.28125 0.25 0.21875 0.1875
          0.15625 0.125 0.09375 0.0625 0.03125 0
          1 0.96875 0.9375 0.90625 0.875 0.84375
          0.8125 0.78125 0.75 0.71875 0.6875 0.65625
          0.625 0.59375 0.5625 0.53125 0.5 0.46875
          0.4375 0.40625 0.375 0.34375 0.3125 0.28125
          0.25 0.21875 0.1875 0.15625 0.125 0.09375
          0.0625 0.03125 0 1 0.96875 0.9375
          0.90625 0.875 0.84375 0.8125 0.78125 0.75
          0.71875 0.6875 0.65625 0.625 0.59375 0.5625
          0.53125 0.5 0.46875 0.4375 0.40625 0.375
          0.34375 0.3125 0.28125 0.25 0.21875 0.1875
          0.15625 0.125 0.09375 0.0625 0.03125 0
          1 0.96875 0.9375 0.90625 0.875 0.84375
          0.8125 0.78125 0.75 0.71875 0.6875 0.65625
          0.625 0.59375 0.5625 0.53125 0.5 0.46875
          0.4375 0.40625 0.375 0.34375 0.3125 0.28125
          0.25 0.21875 0.1875 0.15625 0.125 0.09375
          0.0625 0.03125 0 1 0.96875 0.9375
          0.90625 0.875 0.84375 0.8125 0.78125 0.75
          0.71875 0.6875 0.65625 0.625 0.59375 0.5625
          0.53125 0.5 0.46875 0.4375 0.40625 0.375
          0.34375 0.3125 0.28125 0.25 0.21875 0.1875
          0.15625 0.125 0.09375 0.0625 0.03125 0
          1 0.96875 0.9375 0.90625 0.875 0.84375
          0.8125 0.78125 0.75 0.71875 0.6875 0.65625
          0.625 0.59375 0.5625 0.53125 0.5 0.46875
          0.4375 0.40625 0.375 0.34375 0.3125 0.28125
          0.25 0.21875 0.1875 0.15625 0.125 0.09375
          0.0625 0.03125 0 1 0.96875 0.9375
          0.90625 0.875 0.84375 0.8125 0.78125 0.75
          0.71875 0.6875 0.65625 0.625 0.59375 0.5625
          0.53125 0.5 0.46875 0.4375 0.40625 0.375
          0.34375 0.3125 0.28125 0.25 0.21875 0.1875
          0.15625 0.125 0.09375 0.0625 0.03125 0
          1 0.96875 0.9375 0.90625 0.875 0.84375
          0.8125 0.78125 0.75 0.71875 0.6875 0.65625
          0.625 0.59375 0.5625 0.53125 0.5 0.46875
          0.4375 0.40625 0.375 0.34375 0.3125 0.28125
          0.25 0.21875 0.1875 0.15625 0.125 0.09375
          0.0625 0.03125 0 1 0.96875 0.9375
          0.90625 0.875 0.84375 0.8125 0.78125 0.75
          0.71875 0.6875 0.65625 0.625 0.59375 0.5625
          0.53125 0.5 0.46875 0.4375 0.40625 0.375
          0.34375 0.3125 0.28125 0.25 0.21875 0.1875
          0.15625 0.125 0.09375 0.0625 0.03125 0
          1 0.96875 0.9375 0.90625 0.875 0.84375
          0.8125 0.78125 0.75 0.71875 0.6875 0.65625
          0.625 0.59375 0.5625 0.53125 0.5 0.46875
          0.4375 0.40625 0.375 0.34375 0.3125 0.28125
          0.25 0.21875 0.1875 0.15625 0.125 0.09375
          0.0625 0.03125 0 1 0.96875 0.9375
          0.90625 0.875 0.84375 0.8125 0.78125 0.75
          0.71875 0.6875 0.65625 0.625 0.59375 0.5625
          0.53125 0.5 0.46875 0.4375 0.40625 0.375
          0.34375 0.3125 0.28125 0.25 0.21875 0.1875
          0.15625 0.125 0.09375 0.0625 0.03125 0
          1 0.96875 0.9375 0.90625 0.875 0.84375
          0.8125 0.78125 0.75 0.71875 0.6875 0.65625
          0.625 0.59375 0.5625 0.53125 0.5 0.46875
          0.4375 0.40625 0.375 0.34375 0.3125 0.28125
          0.25 0.21875 0.1875 0.15625 0.125 0.09375
          0.0625 0.03125 0 1 0.96875 0.9375
          0.90625 0.875 0.84375 0.8125 0.78125 0.75
          0.71875 0.6875 0.65625 0.625 0.59375 0.5625
          0.53125 0.5 0.46875 0.4375 0.40625 0.375
          0.34375 0.3125 0.28125 0.25 0.21875 0.1875
          0.15625 0.125 0.09375 0.0625 0.03125 0
          1 0.96875 0.9375 0.90625 0.875 0.84375
          0.8125 0.78125 0.75 0.71875 0.6875 0.65625
          0.625 0.59375 0.5625 0.53125 0.5 0.46875
          0.4375 0.40625 0.375 0.34375 0.3125 0.28125
          0.25 0.21875 0.1875 0.15625 0.125 0.09375
          0.0625 0.03125 0 1 0.96875 0.9375
          0.90625 0.875 0.84375 0.8125 0.78125 0.75
          0.71875 0.6875 0.65625 0.625 0.59375 0.5625
          0.53125 0.5 0.46875 0.4375 0.40625 0.375
          0.34375 0.3125 0.28125 0.25 0.21875 0.1875
          0.15625 0.125 0.09375 0.0625 0.03125 0
          1 0.96875 0.9375 0.90625 0.875 0.84375
          0.8125 0.78125 0.75 0.71875 0.6875 0.65625
          0.625 0.59375 0.5625 0.53125 0.5 0.46875
          0.4375 0.40625 0.375 0.34375 0.3125 0.28125
          0.25 0.21875 0.1875 0.15625 0.125 0.09375
          0.0625 0.03125 0 1 0.96875 0.9375
          0.90625 0.875 0.84375 0.8125 0.78125 0.75
          0.71875 0.6875 0.65625 0.625 0.59375 0.5625
          0.53125 0.5 0.46875 0.4375 0.40625 0.375
          0.34375 0.3125 0.28125 0.25 0.21875 0.1875
          0.15625 0.125 0.09375 0.0625 0.03125 0
          1 0.96875 0.9375 0.90625 0.875 0.84375
          0.8125 0.78125 0.75 0.71875 0.6875 0.65625
          0.625 0.59375 0.5625 0.53125 0.5 0.46875
          0.4375 0.40625 0.375 0.34375 0.3125 0.28125
          0.25 0.21875 0.1875 0.15625 0.125 0.09375
          0.0625 0.03125 0 1 0.96875 0.9375
          0.90625 0.875 0.84375 0.8125 0.78125 0.75
          0.71875 0.6875 0.65625 0.625 0.59375 0.5625
          0.53125 0.5 0.46875 0.4375 0.40625 0.375
          0.34375 0.3125 0.28125 0.25 0.21875 0.1875
          0.15625 0.125 0.09375 0.0625 0.03125 0
          1 0.96875 0.9375 0.90625 0.875 0.84375
          0.8125 0.78125 0.75 0.71875 0.6875 0.65625
          0.625 0.59375 0.5625 0.53125 0.5 0.46875
          0.4375 0.40625 0.375 0.34375 0.3125 0.28125
          0.25 0.21875 0.1875 0.15625 0.125 0.09375
          0.0625 0.03125 0 1 0.96875 0.9375
          0.90625 0.875 0.84375 0.8125 0.78125 0.75
          0.71875 0.6875 0.65625 0.625 0.59375 0.5625
          0.53125 0.5 0.46875 0.4375 0.40625 0.375
          0.34375 0.3125 0.28125 0.25 0.21875 0.1875
          0.15625 0.125 0.09375 0.0625 0.03125 0
          1 0.96875 0.9375 0.90625 0.875 0.84375
          0.8125 0.78125 0.75 0.71875 0.6875 0.65625
          0.625 0.59375 0.5625 0.53125 0.5 0.46875
          0.4375 0.40625 0.375 0.34375 0.3125 0.28125
          0.25 0.21875 0.1875 0.15625 0.125 0.09375
          0.0625 0.03125 0 1 0.96875 0.9375
          0.90625 0.875 0.84375 0.8125 0.78125 0.75
          0.71875 0.6875 0.65625 0.625 0.59375 0.5625
          0.53125 0.5 0.46875 0.4375 0.40625 0.375
          0.34375 0.3125 0.28125 0.25 0.21875 0.1875
          0.15625 0.125 0.09375 0.0625 0.03125 0
          1 0.96875 0.9375 0.90625 0.875 0.84375
          0.8125 0.78125 0.75 0.71875 0.6875 0.65625
          0.625 0.59375 0.5625 0.53125 0.5 0.46875
          0.4375 0.40625 0.375 0.34375 0.3125 0.28125
          0.25 0.21875 0.1875 0.15625 0.125 0.09375
          0.0625 0.03125 0 1 0.96875 0.9375
          0.90625 0.875 0.84375 0.8125 0.78125 0.75
          0.71875 0.6875 0.65625 0.625 0.59375 0.5625
          0.53125 0.5 0.46875 0.4375 0.40625 0.375
          0.34375 0.3125 0.28125 0.25 0.21875 0.1875
          0.15625 0.125 0.09375 0.0625 0.03125 0
          1 0.96875 0.9375 0.90625 0.875 0.84375
          0.8125 0.78125 0.75 0.71875 0.6875 0.65625
          0.625 0.59375 0.5625 0.53125 0.5 0.46875
          0.4375 0.40625 0.375 0.34375 0.3125 0.28125
          0.25 0.21875 0.1875 0.15625 0.125 0.09375
          0.0625 0.03125 0 1 0.96875 0.9375
          0.90625 0.875 0.84375 0.8125 0.78125 0.75
          0.71875 0.6875 0.65625 0.625 0.59375 0.5625
          0.53125 0.5 0.46875 0.4375 0.40625 0.375
          0.34375 0.3125 0.28125 0.25 0.21875 0.1875
          0.15625 0.125 0.09375 0.0625 0.03125 0
          1 0.96875 0.9375 0.90625 0.875 0.84375
          0.8125 0.78125 0.75 0.71875 0.6875 0.65625
          0.625 0.59375 0.5625 0.53125 0.5 0.46875
          0.4375 0.40625 0.375 0.34375 0.3125 0.28125
          0.25 0.21875 0.1875 0.15625 0.125 0.09375
          0.0625 0.03125 0
        </DataArray>
        <DataArray type="Float64" Name="darcy_velocity" NumberOfComponents="2" format="ascii" RangeMin="0.0001239" RangeMax="0.0001239">
          0.0001239 3.9684553797e-20 0.0001239 -1.9842276898e-20 0.0001239 1.5342149312e-19
          0.0001239 4.8893386553e-20 0.0001239 -1.8247260277e-19 0.0001239 -6.5364996724e-20
          0.0001239 -5.6336797453e-19 0.0001239 -6.2341624918e-19 0.0001239 1.0633444142e-20
          0.0001239 -6.3210363798e-19 0.0001239 1.3163316088e-19 0.0001239 -1.0647416191e-19
          0.0001239 3.5236570606e-19 0.0001239 -1.9842276898e-20 0.0001239 -3.5768242813e-19
          0.0001239 -2.7105054312e-19 0.0001239 -1.6723474225e-19 0.0001239 2.2676157295e-19
          0.0001239 1.0576185621e-19 0.0001239 2.7636726519e-19 0.0001239 2.8078081984e-20
          0.0001239 -3.2960434615e-19 0.0001239 -3.7026192761e-20 0.0001239 3.5210498408e-20
          0.0001239 -1.2596028596e-19 0.0001239 6.3644733238e-20 0.0001239 -2.3473665605e-20
          0.0001239 -1.1205160596e-19 0.0001239 -1.2941359824e-19 0.0001239 8.8352148493e-21
          0.0001239 -3.0671262524e-20 0.0001239 8.8978612302e-20 0.0001239 -3.0150240644e-19
          0.0001239 3.9684553797e-20 0.0001239 -2.4199943347e-19 0.0001239 3.9684553797e-20
          0.0001239 3.5502406709e-19 0.0001239 -5.686846966e-20 0.0001239 1.1905366139e-19
          0.0001239 -6.7568030246e-19 0.0001239 -1.573136038e-19 0.0001239 -3.5502406709e-19
          0.0001239 -3.3323573485e-19 0.0001239 3.2597295744e-19 0.0001239 7.5998440865e-20
          0.0001239 3.2791901278e-19 0.0001239 1.183413557e-19 0.0001239 -1.7183915863e-20
          0.0001239 -2.2215715657e-19 0.0001239 4.0994648141e-19 0.0001239 -4.4288970175e-20
          0.0001239 2.9089282002e-19 0.0001239 1.87433172e-19 0.0001239 1.1701217518e-19
          0.0001239 -2.74065057e-19 0.0001239 -2.6644612674e-19 0.0001239 -4.81636158e-20
          0.0001239 -4.8519768646e-20 0.0001239 7.2236691169e-20 0.0001239 -4.9914129659e-20
          0.0001239 1.8488770689e-19 0.0001239 8.2401086536e-20 0.0001239 -1.3730603579e-20
          0.0001239 -1.3025626492e-19 0.0001239 7.1750177334e-20 0.0001239 -3.0117011132e-19
          0.0001239 9.0277966143e-36 0.0001239 -1.7520982536e-19 0.0001239 1.418150213e-19
          0.0001239 -6.776263578e-20 0.0001239 -2.7105054312e-20 0.0001239 2.1527610262e-20
          0.0001239 -3.9107723218e-19 0.0001239 -4.2641809158e-19 0.0001239 -2.2941993398e-19
          0.0001239 1.7183915863e-20 0.0001239 3.7389331632e-19 0.0001239 1.5536754846e-19
          0.0001239 -1.0744718958e-19 0.0001239 1.3092085518e-19 0.0001239 1.0381580087e-19
          0.0001239 -2.0036882433e-19 0.0001239 4.2713039727e-19 0.0001239 -1.9842276898e-20
          0.0001239 7.4052385523e-20 0.0001239 5.1065233753e-20 0.0001239 -3.2908290219e-20
          0.0001239 2.8920748666e-20 0.0001239 -3.5538021994e-19 0.0001239 6.5395247097e-20
          0.0001239 -5.1000053258e-20 0.0001239 9.0132912725e-21 0.0001239 -1.8934429722e-20
          0.0001239 1.2099971673e-19 0.0001239 2.7388698058e-19 0.0001239 -2.6132026641e-20
          0.0001239 -1.0926288393e-19 0.0001239 6.5283949332e-20 0.0001239 -3.0348424836e-19
          0.0001239 7.9369107594e-20 0.0001239 -3.8744584348e-19 0.0001239 -2.954972364e-19
          0.0001239 -2.9763415348e-20 0.0001239 -2.7831332054e-19 0.0001239 -2.1788332241e-20