<?xml version="1.0"?>
<VTKFile type="UnstructuredGrid" version="0.1" byte_order="LittleEndian" header_type="UInt32">
  <UnstructuredGrid>
    <Piece NumberOfPoints="1089" NumberOfCells="1024">
      <PointData>
        <DataArray type="Float64" Name="concentration" format="ascii" RangeMin="-0.00030000394312" RangeMax="1">
          1 0.91365016282 0.76921928947 0.56766851291 0.35067885778 0.17343485442
          0.064890020729 0.016492398635 0.0019484905697 -0.00030000394312 -0.00013544980575 -4.6393196001e-07
          6.4958871507e-06 1.9229579473e-07 -3.2728680782e-07 2.3272942889e-09 1.674732756e-08 -1.5818324988e-09
          -7.1128528401e-10 1.7504415037e-10 1.2665326262e-11 -1.1484902779e-11 1.3336710996e-12 3.7391134715e-13
          -1.4853459229e-13 1.1079803879e-14 5.7296112992e-15 -1.952814311e-15 1.5517353715e-16 7.0016878299e-17
          -2.6897091866e-17 3.4460657492e-18 0 1 0.91365016282 0.76921928947
          0.56766851291 0.35067885778 0.17343485442 0.064890020729 0.016492398635 0.0019484905698
          -0.0003000039431 -0.00013544980574 -4.6393195753e-07 6.4958871509e-06 1.922957946e-07 -3.2728680785e-07
          2.3272942939e-09 1.6747327562e-08 -1.5818324991e-09 -7.1128528416e-10 1.750441504e-10 1.2665326268e-11
          -1.1484902782e-11 1.3336710996e-12 3.7391134734e-13 -1.4853459232e-13 1.1079803873e-14 5.7296113024e-15
          -1.9528143112e-15 1.5517353701e-16 7.001687835e-17 -2.689709187e-17 3.4460657471e-18 0
          1 0.91365016282 0.76921928947 0.56766851291 0.35067885778 0.17343485442
          0.064890020729 0.016492398635 0.0019484905698 -0.00030000394306 -0.00013544980572 -4.6393195166e-07
          6.4958871514e-06 1.9229579432e-07 -3.2728680793e-07 2.3272943054e-09 1.6747327568e-08 -1.5818324998e-09
          -7.1128528452e-10 1.7504415047e-10 1.2665326285e-11 -1.1484902788e-11 1.3336710994e-12 3.7391134779e-13
          -1.4853459238e-13 1.1079803856e-14 5.7296113099e-15 -1.9528143118e-15 1.5517353666e-16 7.001687847e-17
          -2.6897091878e-17 3.446065742e-18 0 1 0.91365016282 0.76921928947
          0.56766851291 0.35067885778 0.17343485442 0.064890020729 0.016492398636 0.0019484905699
          -0.00030000394301 -0.0001354498057 -4.6393194566e-07 6.4958871519e-06 1.9229579403e-07 -3.27286808e-07
          2.3272943162e-09 1.6747327574e-08 -1.5818325005e-09 -7.1128528488e-10 1.7504415053e-10 1.2665326303e-11
          -1.1484902795e-11 1.333671099e-12 3.7391134825e-13 -1.4853459244e-13 1.1079803838e-14 5.7296113174e-15
          -1.9528143122e-15 1.5517353628e-16 7.0016878588e-17 -2.6897091884e-17 3.4460657363e-18 0
          1 0.91365016282 0.76921928947 0.56766851291 0.35067885778 0.17343485442
          0.06489002073 0.016492398636 0.00194849057 -0.00030000394298 -0.00013544980568 -4.639319417e-07
          6.4958871522e-06 1.9229579385e-07 -3.2728680806e-07 2.3272943226e-09 1.6747327578e-08 -1.5818325009e-09
          -7.1128528513e-10 1.7504415057e-10 1.2665326316e-11 -1.1484902799e-11 1.3336710987e-12 3.7391134855e-13
          -1.4853459247e-13 1.1079803824e-14 5.7296113221e-15 -1.9528143124e-15 1.5517353601e-16 7.0016878662e-17
          -2.6897091885e-17 3.4460657323e-18 0 1 0.91365016282 0.76921928947
          0.56766851291 0.35067885778 0.17343485442 0.06489002073 0.016492398636 0.00194849057
          -0.00030000394296 -0.00013544980568 -4.6393193995e-07 6.4958871524e-06 1.9229579378e-07 -3.2728680808e-07
          2.3272943248e-09 1.6747327579e-08 -1.581832501e-09 -7.1128528524e-10 1.7504415058e-10 1.2665326322e-11
          -1.14849028e-11 1.3336710985e-12 3.7391134868e-13 -1.4853459248e-13 1.1079803817e-14 5.7296113241e-15
          -1.9528143124e-15 1.5517353588e-16 7.0016878691e-17 -2.6897091884e-17 3.4460657303e-18 0
          1 0.91365016282 0.76921928947 0.56766851291 0.35067885778 0.17343485442
          0.06489002073 0.016492398636 0.00194849057 -0.00030000394296 -0.00013544980568 -4.6393193949e-07
          6.4958871525e-06 1.9229579376e-07 -3.2728680809e-07 2.3272943251e-09 1.674732758e-08 -1.581832501e-09
          -7.1128528528e-10 1.7504415059e-10 1.2665326325e-11 -1.1484902801e-11 1.3336710984e-12 3.7391134872e-13
          -1.4853459248e-13 1.1079803815e-14 5.7296113246e-15 -1.9528143123e-15 1.5517353584e-16 7.0016878698e-17
          -2.6897091883e-17 3.4460657296e-18 0 1 0.91365016282 0.76921928947
          0.56766851291 0.35067885778 0.17343485442 0.06489002073 0.016492398636 0.00194849057
          -0.00030000394296 -0.00013544980568 -4.639319395e-07 6.4958871525e-06 1.9229579376e-07 -3.2728680809e-07
          2.3272943248e-09 1.674732758e-08 -1.581832501e-09 -7.1128528529e-10 1.7504415059e-10 1.2665326325e-11
          -1.1484902801e-11 1.3336710984e-12 3.7391134873e-13 -1.4853459248e-13 1.1079803814e-14 5.7296113247e-15
          -1.9528143123e-15 1.5517353583e-16 7.0016878699e-17 -2.6897091883e-17 3.4460657294e-18 0
          1 0.91365016282 0.76921928947 0.56766851291 0.35067885778 0.17343485442
          0.06489002073 0.016492398636 0.00194849057 -0.00030000394296 -0.00013544980568 -4.6393193964e-07
          6.4958871525e-06 1.9229579377e-07 -3.2728680809e-07 2.3272943244e-09 1.674732758e-08 -1.581832501e-09
          -7.1128528529e-10 1.7504415059e-10 1.2665326326e-11 -1.1484902801e-11 1.3336710984e-12 3.7391134874e-13
          -1.4853459248e-13 1.1079803814e-14 5.7296113248e-15 -1.9528143123e-15 1.5517353583e-16 7.00168787e-17
          -2.6897091883e-17 3.4460657294e-18 0 1 0.91365016282 0.76921928947
          0.56766851291 0.35067885778 0.17343485442 0.06489002073 0.016492398636 0.00194849057
          -0.00030000394296 -0.00013544980568 -4.6393193981e-07 6.4958871525e-06 1.9229579378e-07 -3.2728680809e-07
          2.3272943238e-09 1.674732758e-08 -1.5818325009e-09 -7.112852853e-10 1.7504415059e-10 1.2665326326e-11
          -1.1484902801e-11 1.3336710984e-12 3.7391134874e-13 -1.4853459248e-13 1.1079803814e-14 5.7296113249e-15
          -1.9528143123e-15 1.5517353582e-16 7.0016878702e-17 -2.6897091883e-17 3.4460657293e-18 0
          1 0.91365016282 0.76921928947 0.56766851291 0.35067885778 0.17343485442
          0.06489002073 0.016492398636 0.0019484905701 -0.00030000394296 -0.00013544980568 -4.6393194e-07
          6.4958871525e-06 1.9229579379e-07 -3.272868081e-07 2.3272943232e-09 1.674732758e-08 -1.5818325009e-09
          -7.1128528531e-10 1.7504415058e-10 1.2665326327e-11 -1.1484902801e-11 1.3336710984e-12 3.7391134875e-13
          -1.4853459248e-13 1.1079803813e-14 5.729611325e-15 -1.9528143123e-15 1.5517353582e-16 7.0016878703e-17
          -2.6897091883e-17 3.4460657293e-18 0 1 0.91365016282 0.76921928947
          0.56766851291 0.35067885778 0.17343485442 0.06489002073 0.016492398636 0.0019484905701
          -0.00030000394295 -0.00013544980568 -4.6393194019e-07 6.4958871526e-06 1.922957938e-07 -3.272868081e-07
          2.3272943225e-09 1.674732758e-08 -1.5818325009e-09 -7.1128528532e-10 1.7504415058e-10 1.2665326327e-11
          -1.1484902801e-11 1.3336710983e-12 3.7391134876e-13 -1.4853459248e-13 1.1079803813e-14 5.7296113251e-15
          -1.9528143123e-15 1.5517353581e-16 7.0016878705e-17 -2.6897091883e-17 3.4460657292e-18 0
          1 0.91365016282 0.76921928947 0.56766851291 0.35067885778 0.17343485442
          0.064890020731 0.016492398636 0.0019484905701 -0.00030000394295 -0.00013544980568 -4.6393194039e-07
          6.4958871526e-06 1.9229579381e-07 -3.272868081e-07 2.3272943219e-09 1.6747327581e-08 -1.5818325009e-09
          -7.1128528533e-10 1.7504415058e-10 1.2665326328e-11 -1.1484902801e-11 1.3336710983e-12 3.7391134877e-13
          -1.4853459248e-13 1.1079803813e-14 5.7296113252e-15 -1.9528143123e-15 1.5517353581e-16 7.0016878707e-17
          -2.6897091883e-17 3.4460657291e-18 0 1 0.91365016282 0.76921928947
          0.56766851291 0.35067885778 0.17343485442 0.064890020731 0.016492398636 0.0019484905701
          -0.00030000394295 -0.00013544980568 -4.6393194058e-07 6.4958871526e-06 1.9229579382e-07 -3.272868081e-07
          2.3272943212e-09 1.6747327581e-08 -1.5818325008e-09 -7.1128528534e-10 1.7504415058e-10 1.2665326329e-11
          -1.1484902801e-11 1.3336710983e-12 3.7391134878e-13 -1.4853459249e-13 1.1079803812e-14 5.7296113253e-15
          -1.9528143123e-15 1.551735358e-16 7.0016878709e-17 -2.6897091883e-17 3.4460657291e-18 0
          1 0.91365016282 0.76921928947 0.56766851291 0.35067885778 0.17343485442
          0.064890020731 0.016492398636 0.0019484905701 -0.00030000394295 -0.00013544980568 -4.6393194076e-07
          6.4958871526e-06 1.9229579383e-07 -3.272868081e-07 2.3272943206e-09 1.6747327581e-08 -1.5818325008e-09
          -7.1128528535e-10 1.7504415058e-10 1.2665326329e-11 -1.1484902801e-11 1.3336710983e-12 3.7391134878e-13
          -1.4853459249e-13 1.1079803812e-14 5.7296113255e-15 -1.9528143124e-15 1.551735358e-16 7.001687871e-17
          -2.6897091883e-17 3.446065729e-18 0 1 0.91365016282 0.76921928947
          0.56766851291 0.35067885778 0.17343485442 0.064890020731 0.016492398636 0.0019484905702
          -0.00030000394295 -0.00013544980568 -4.6393194094e-07 6.4958871526e-06 1.9229579385e-07 -3.272868081e-07
          2.3272943201e-09 1.6747327581e-08 -1.5818325008e-09 -7.1128528536e-10 1.7504415058e-10 1.266532633e-11
          -1.1484902801e-11 1.3336710983e-12 3.7391134879e-13 -1.4853459249e-13 1.1079803811e-14 5.7296113256e-15
          -1.9528143124e-15 1.5517353579e-16 7.0016878712e-17 -2.6897091884e-17 3.446065729e-18 0
          1 0.91365016282 0.76921928947 0.56766851291 0.35067885778 0.17343485442
          0.064890020731 0.016492398636 0.0019484905702 -0.00030000394295 -0.00013544980568 -4.6393194111e-07
          6.4958871527e-06 1.9229579386e-07 -3.272868081e-07 2.3272943197e-09 1.6747327581e-08 -1.5818325008e-09
          -7.1128528537e-10 1.7504415058e-10 1.266532633e-11 -1.1484902801e-11 1.3336710982e-12 3.739113488e-13
          -1.4853459249e-13 1.1079803811e-14 5.7296113256e-15 -1.9528143124e-15 1.5517353579e-16 7.0016878713e-17
          -2.6897091884e-17 3.4460657289e-18 0 1 0.91365016282 0.76921928947
          0.56766851291 0.35067885778 0.17343485442 0.064890020731 0.016492398636 0.0019484905702
          -0.00030000394295 -0.00013544980568 -4.6393194128e-07 6.4958871527e-06 1.9229579387e-07 -3.272868081e-07
          2.3272943194e-09 1.6747327581e-08 -1.5818325008e-09 -7.1128528538e-10 1.7504415058e-10 1.2665326331e-11
          -1.1484902801e-11 1.3336710982e-12 3.739113488e-13 -1.4853459249e-13 1.1079803811e-14 5.7296113257e-15
          -1.9528143124e-15 1.5517353578e-16 7.0016878714e-17 -2.6897091884e-17 3.4460657289e-18 0
          1 0.91365016282 0.76921928947 0.56766851291 0.35067885778 0.17343485442
          0.064890020732 0.016492398636 0.0019484905702 -0.00030000394295 -0.00013544980568 -4.6393194145e-07
          6.4958871527e-06 1.9229579388e-07 -3.272868081e-07 2.327294319e-09 1.6747327581e-08 -1.5818325007e-09
          -7.1128528538e-10 1.7504415058e-10 1.2665326331e-11 -1.1484902801e-11 1.3336710982e-12 3.7391134881e-13
          -1.4853459249e-13 1.1079803811e-14 5.7296113258e-15 -1.9528143124e-15 1.5517353578e-16 7.0016878715e-17
          -2.6897091884e-17 3.4460657289e-18 0 1 0.91365016282 0.76921928947
          0.56766851291 0.35067885778 0.17343485442 0.064890020732 0.016492398637 0.0019484905702
          -0.00030000394294 -0.00013544980568 -4.639319416e-07 6.4958871527e-06 1.9229579389e-07 -3.272868081e-07
          2.3272943186e-09 1.6747327581e-08 -1.5818325007e-09 -7.1128528539e-10 1.7504415058e-10 1.2665326331e-11
          -1.1484902801e-11 1.3336710982e-12 3.7391134882e-13 -1.4853459249e-13 1.107980381e-14 5.7296113258e-15
          -1.9528143124e-15 1.5517353578e-16 7.0016878716e-17 -2.6897091884e-17 3.4460657288e-18 0
          1 0.91365016282 0.76921928947 0.56766851291 0.35067885778 0.17343485442
          0.064890020732 0.016492398637 0.0019484905702 -0.00030000394294 -0.00013544980569 -4.6393194175e-07
          6.4958871527e-06 1.922957939e-07 -3.272868081e-07 2.3272943182e-09 1.6747327581e-08 -1.5818325007e-09
          -7.112852854e-10 1.7504415058e-10 1.2665326332e-11 -1.1484902802e-11 1.3336710982e-12 3.7391134883e-13
          -1.4853459249e-13 1.107980381e-14 5.7296113259e-15 -1.9528143124e-15 1.5517353577e-16 7.0016878717e-17
          -2.6897091884e-17 3.4460657288e-18 0 1 0.91365016282 0.76921928947
          0.56766851291 0.35067885778 0.17343485442 0.064890020732 0.016492398637 0.0019484905703
          -0.00030000394294 -0.00013544980569 -4.6393194188e-07 6.4958871528e-06 1.922957939e-07 -3.2728680811e-07
          2.3272943178e-09 1.6747327581e-08 -1.5818325007e-09 -7.112852854e-10 1.7504415058e-10 1.2665326332e-11
          -1.1484902802e-11 1.3336710981e-12 3.7391134883e-13 -1.4853459249e-13 1.107980381e-14 5.729611326e-15
          -1.9528143124e-15 1.5517353577e-16 7.0016878718e-17 -2.6897091884e-17 3.4460657288e-18 0
          1 0.91365016282 0.76921928947 0.56766851291 0.35067885778 0.17343485442
          0.064890020732 0.016492398637 0.0019484905703 -0.00030000394294 -0.00013544980569 -4.63931942e-07
          6.4958871528e-06 1.9229579391e-07 -3.2728680811e-07 2.3272943175e-09 1.6747327581e-08 -1.5818325007e-09
          -7.1128528541e-10 1.7504415058e-10 1.2665326332e-11 -1.1484902802e-11 1.3336710981e-12 3.7391134883e-13
          -1.4853459249e-13 1.107980381e-14 5.7296113261e-15 -1.9528143124e-15 1.5517353576e-16 7.0016878719e-17
          -2.6897091884e-17 3.4460657287e-18 0 1 0.91365016282 0.76921928947
          0.56766851291 0.35067885778 0.17343485442 0.064890020732 0.016492398637 0.0019484905703
          -0.00030000394294 -0.00013544980569 -4.6393194211e-07 6.4958871528e-06 1.9229579392e-07 -3.2728680811e-07
          2.3272943172e-09 1.6747327581e-08 -1.5818325006e-09 -7.1128528541e-10 1.7504415058e-10 1.2665326333e-11
          -1.1484902802e-11 1.3336710981e-12 3.7391134883e-13 -1.4853459249e-13 1.1079803809e-14 5.7296113262e-15
          -1.9528143124e-15 1.5517353576e-16 7.0016878721e-17 -2.6897091884e-17 3.4460657286e-18 0
          1 0.91365016282 0.76921928947 0.56766851291 0.35067885778 0.17343485442
          0.064890020732 0.016492398637 0.0019484905703 -0.00030000394294 -0.00013544980569 -4.6393194221e-07
          6.4958871528e-06 1.9229579392e-07 -3.2728680811e-07 2.3272943169e-09 1.6747327582e-08 -1.5818325006e-09
          -7.1128528541e-10 1.7504415058e-10 1.2665326333e-11 -1.1484902802e-11 1.3336710981e-12 3.7391134883e-13
          -1.4853459249e-13 1.1079803809e-14 5.7296113262e-15 -1.9528143124e-15 1.5517353576e-16 7.0016878722e-17
          -2.6897091884e-17 3.4460657286e-18 0 1 0.91365016282 0.76921928947
          0.56766851291 0.35067885778 0.17343485442 0.064890020732 0.016492398637 0.0019484905703
          -0.00030000394294 -0.00013544980569 -4.6393194231e-07 6.4958871528e-06 1.9229579393e-07 -3.2728680811e-07
          2.3272943167e-09 1.6747327582e-08 -1.5818325006e-09 -7.1128528541e-10 1.7504415058e-10 1.2665326333e-11
          -1.1484902802e-11 1.3336710981e-12 3.7391134883e-13 -1.4853459249e-13 1.1079803809e-14 5.7296113262e-15
          -1.9528143124e-15 1.5517353576e-16 7.0016878722e-17 -2.6897091884e-17 3.4460657286e-18 0
          1 0.91365016282 0.76921928947 0.56766851291 0.35067885778 0.17343485442
          0.064890020732 0.016492398637 0.0019484905703 -0.00030000394294 -0.00013544980569 -4.6393194239e-07
          6.4958871528e-06 1.9229579393e-07 -3.2728680811e-07 2.3272943163e-09 1.6747327582e-08 -1.5818325006e-09
          -7.1128528541e-10 1.7504415058e-10 1.2665326333e-11 -1.1484902802e-11 1.3336710981e-12 3.7391134883e-13
          -1.4853459249e-13 1.1079803809e-14 5.7296113261e-15 -1.9528143123e-15 1.5517353576e-16 7.001687872e-17
          -2.6897091884e-17 3.4460657287e-18 0 1 0.91365016282 0.76921928947
          0.56766851291 0.35067885778 0.17343485442 0.064890020732 0.016492398637 0.0019484905703
          -0.00030000394294 -0.00013544980569 -4.6393194204e-07 6.4958871529e-06 1.9229579393e-07 -3.2728680811e-07
          2.327294316e-09 1.6747327582e-08 -1.5818325006e-09 -7.1128528544e-10 1.7504415058e-10 1.2665326336e-11
          -1.1484902802e-11 1.333671098e-12 3.7391134886e-13 -1.4853459249e-13 1.1079803806e-14 5.7296113264e-15
          -1.9528143123e-15 1.5517353572e-16 7.0016878722e-17 -2.6897091882e-17 3.446065728e-18 0
          1 0.91365016282 0.76921928947 0.56766851291 0.35067885778 0.17343485442
          0.064890020732 0.016492398637 0.0019484905703 -0.00030000394292 -0.00013544980568 -4.6393193983e-07
          6.4958871531e-06 1.9229579384e-07 -3.2728680815e-07 2.3272943178e-09 1.6747327584e-08 -1.5818325007e-09
          -7.112852856e-10 1.7504415059e-10 1.2665326344e-11 -1.1484902804e-11 1.3336710976e-12 3.7391134903e-13
          -1.4853459249e-13 1.1079803796e-14 5.7296113287e-15 -1.9528143122e-15 1.5517353554e-16 7.0016878758e-17
          -2.6897091879e-17 3.4460657252e-18 0 1 0.91365016282 0.76921928947
          0.56766851291 0.35067885778 0.17343485442 0.064890020733 0.016492398637 0.0019484905704
          -0.00030000394288 -0.00013544980566 -4.6393193369e-07 6.4958871538e-06 1.9229579358e-07 -3.2728680823e-07
          2.3272943265e-09 1.6747327591e-08 -1.5818325012e-09 -7.11285286e-10 1.7504415065e-10 1.2665326366e-11
          -1.148490281e-11 1.3336710971e-12 3.7391134952e-13 -1.4853459254e-13 1.1079803774e-14 5.7296113362e-15
          -1.9528143123e-15 1.5517353511e-16 7.0016878874e-17 -2.689709188e-17 3.4460657185e-18 0
          1 0.91365016282 0.76921928947 0.56766851291 0.35067885778 0.17343485442
          0.064890020733 0.016492398637 0.0019484905705 -0.00030000394281 -0.00013544980562 -4.6393192332e-07
          6.4958871547e-06 1.922957931e-07 -3.2728680838e-07 2.3272943445e-09 1.6747327601e-08 -1.5818325023e-09
          -7.1128528665e-10 1.7504415076e-10 1.2665326398e-11 -1.1484902821e-11 1.3336710965e-12 3.7391135033e-13
          -1.4853459264e-13 1.1079803742e-14 5.7296113495e-15 -1.9528143131e-15 1.5517353445e-16 7.0016879083e-17
          -2.6897091891e-17 3.4460657085e-18 0 1 0.91365016282 0.76921928947
          0.56766851291 0.35067885778 0.17343485442 0.064890020733 0.016492398637 0.0019484905706
          -0.00030000394273 -0.00013544980559 -4.639319126e-07 6.4958871557e-06 1.9229579258e-07 -3.2728680852e-07
          2.3272943649e-09 1.6747327612e-08 -1.5818325036e-09 -7.1128528731e-10 1.7504415089e-10 1.266532643e-11
          -1.1484902833e-11 1.3336710961e-12 3.7391135117e-13 -1.4853459276e-13 1.1079803711e-14 5.7296113635e-15
          -1.9528143142e-15 1.5517353381e-16 7.0016879307e-17 -2.6897091907e-17 3.4460656991e-18 0
          1 0.91365016282 0.76921928947 0.56766851291 0.35067885778 0.17343485442
          0.064890020733 0.016492398637 0.0019484905707 -0.00030000394269 -0.00013544980557 -4.6393190793e-07
          6.495887156e-06 1.9229579235e-07 -3.2728680858e-07 2.3272943742e-09 1.6747327616e-08 -1.5818325042e-09
          -7.112852876e-10 1.7504415095e-10 1.2665326443e-11 -1.1484902838e-11 1.333671096e-12 3.7391135153e-13
          -1.4853459282e-13 1.1079803699e-14 5.7296113697e-15 -1.9528143147e-15 1.5517353354e-16 7.0016879405e-17
          -2.6897091915e-17 3.4460656952e-18 0
        </DataArray>
        <DataArray type="Float64" Name="pressure" format="ascii" RangeMin="0" RangeMax="1">
          1 0.96875 0.9375 0.90625 0.875 0.84375
          0.8125 0.78125 0.75 0.71875 0.6875 0.65625
          0.625 0.59375 0.5625 0.53125 0.5 0.46875
          0.4375 0.40625 0.375 0.34375 0.3125 0.28125
          0.25 0.21875 0.1875 0.15625 0.125 0.09375
          0.0625 0.03125 0 1 0.96875 0.9375
          0.90625 0.875 0.84375 0.8125 0.78125 0.75
          0.71875 0.6875 0.65625 0.625 0.59375 0.5625
          0.53125 0.5 0.46875 0.4375 0.40625 0.375
          0.34375 0.3125 0.28125 0.25 0.21875 0.1875
          0.15625 0.125 0.09375 0.0625 0.03125 0
          1 0.96875 0.9375 0.90625 0.875 0.84375
          0.8125 0.78125 0.75 0.71875 0.6875 0.65625
          0.625 0.59375 0.5625 0.53125 0.5 0.46875
          0.4375 0.40625 0.375 0.34375 0.3125 0.28125
          0.25 0.21875 0.1875 0.15625 0.125 0.09375
          0.0625 0.03125 0 1 0.96875 0.9375
          0.90625 0.875 0.84375 0.8125 0.78125 0.75
          0.71875 0.6875 0.65625 0.625 0.59375 0.5625
          0.53125 0.5 0.46875 0.4375 0.40625 0.375
          0.34375 0.3125 0.28125 0.25 0.21875 0.1875
          0.15625 0.125 0.09375 0.0625 0.03125 0
          1 0.96875 0.9375 0.90625 0.875 0.84375
          0.8125 0.78125 0.75 0.71875 0.6875 0.65625
          0.625 0.59375 0.5625 0.53125 0.5 0.46875
          0.4375 0.40625 0.375 0.34375 0.3125 0.28125
          0.25 0.21875 0.1875 0.15625 0.125 0.09375
          0.0625 0.03125 0 1 0.96875 0.9375
          0.90625 0.875 0.84375 0.8125 0.78125 0.75
          0.71875 0.6875 0.65625 0.625 0.59375 0.5625
          0.53125 0.5 0.46875 0.4375 0.40625 0.375
          0.34375 0.3125 0.28125 0.25 0.21875 0.1875
          0.15625 0.125 0.09375 0.0625 0.03125 0
          1 0.96875 0.9375 0.90625 0.875 0.84375
          0.8125 0.78125 0.75 0.71875 0.6875 0.65625
          0.625 0.59375 0.5625 0.53125 0.5 0.46875
          0.4375 0.40625 0.375 0.34375 0.3125 0.28125
          0.25 0.21875 0.1875 0.15625 0.125 0.09375
          0.0625 0.03125 0 1 0.96875 0.9375
          0.90625 0.875 0.84375 0.8125 0.78125 0.75
          0.71875 0.6875 0.65625 0.625 0.59375 0.5625
          0.53125 0.5 0.46875 0.4375 0.40625 0.375
          0.34375 0.3125 0.28125 0.25 0.21875 0.1875
          0.15625 0.125 0.09375 0.0625 0.03125 0
          1 0.96875 0.9375 0.90625 0.875 0.84375
          0.8125 0.78125 0.75 0.71875 0.6875 0.65625
          0.625 0.59375 0.5625 0.53125 0.5 0.46875
          0.4375 0.40625 0.375 0.34375 0.3125 0.28125
          0.25 0.21875 0.1875 0.15625 0.125 0.09375
          0.0625 0.03125 0 1 0.96875 0.9375
          0.90625 0.875 0.84375 0.8125 0.78125 0.75
          0.71875 0.6875 0.65625 0.625 0.59375 0.5625
          0.53125 0.5 0.46875 0.4375 0.40625 0.375
          0.34375 0.3125 0.28125 0.25 0.21875 0.1875
          0.15625 0.125 0.09375 0.0625 0.03125 0
          1 0.96875 0.9375 0.90625 0.875 0.84375
          0.8125 0.78125 0.75 0.71875 0.6875 0.65625
          0.625 0.59375 0.5625 0.53125 0.5 0.46875
          0.4375 0.40625 0.375 0.34375 0.3125 0.28125
          0.25 0.21875 0.1875 0.15625 0.125 0.09375
          0.0625 0.03125 0 1 0.96875 0.9375
          0.90625 0.875 0.84375 0.8125 0.78125 0.75
          0.71875 0.6875 0.65625 0.625 0.59375 0.5625
          0.53125 0.5 0.46875 0.4375 0.40625 0.375
          0.34375 0.3125 0.28125 0.25 0.21875 0.1875
          0.15625 0.125 0.09375 0.0625 0.03125 0
          1 0.96875 0.9375 0.90625 0.875 0.84375
          0.8125 0.78125 0.75 0.71875 0.6875 0.65625
          0.625 0.59375 0.5625 0.53125 0.5 0.46875
          0.4375 0.40625 0.375 0.34375 0.3125 0.28125
          0.25 0.21875 0.1875 0.15625 0.125 0.09375
          0.0625 0.03125 0 1 0.96875 0.9375
          0.90625 0.875 0.84375 0.8125 0.78125 0.75
          0.71875 0.6875 0.65625 0.625 0.59375 0.5625
          0.53125 0.5 0.46875 0.4375 0.40625 0.375
          0.34375 0.3125 0.28125 0.25 0.21875 0.1875
          0.15625 0.125 0.09375 0.0625 0.03125 0
          1 0.96875 0.9375 0.90625 0.875 0.84375
          0.8125 0.78125 0.75 0.71875 0.6875 0.65625
          0.625 0.59375 0.5625 0.53125 0.5 0.46875
          0.4375 0.40625 0.375 0.34375 0.3125 0.28125
          0.25 0.21875 0.1875 0.15625 0.125 0.09375
          0.0625 0.03125 0 1 0.96875 0.9375
          0.90625 0.875 0.84375 0.8125 0.78125 0.75
          0.71875 0.6875 0.65625 0.625 0.59375 0.5625
          0.53125 0.5 0.46875 0.4375 0.40625 0.375
          0.34375 0.3125 0.28125 0.25 0.21875 0.1875
          0.15625 0.125 0.09375 0.0625 0.03125 0
          1 0.96875 0.9375 0.90625 0.875 0.84375
          0.8125 0.78125 0.75 0.71875 0.6875 0.65625
          0.625 0.59375 0.5625 0.53125 0.5 0.46875
          0.4375 0.40625 0.375 0.34375 0.3125 0.28125
          0.25 0.21875 0.1875 0.15625 0.125 0.09375
          0.0625 0.03125 0 1 0.96875 0.9375
          0.90625 0.875 0.84375 0.8125 0.78125 0.75
          0.71875 0.6875 0.65625 0.625 0.59375 0.5625
          0.53125 0.5 0.46875 0.4375 0.40625 0.375
          0.34375 0.3125 0.28125 0.25 0.21875 0.1875
          0.15625 0.125 0.09375 0.0625 0.03125 0
          1 0.96875 0.9375 0.90625 0.875 0.84375
          0.8125 0.78125 0.75 0.71875 0.6875 0.65625
          0.625 0.59375 0.5625 0.53125 0.5 0.46875
          0.4375 0.40625 0.375 0.34375 0.3125 0.28125
          0.25 0.21875 0.1875 0.15625 0.125 0.09375
          0.0625 0.03125 0 1 0.96875 0.9375
          0.90625 0.875 0.84375 0.8125 0.78125 0.75
          0.71875 0.6875 0.65625 0.625 0.59375 0.5625
          0.53125 0.5 0.46875 0.4375 0.40625 0.375
          0.34375 0.3125 0.28125 0.25 0.21875 0.1875
          0.15625 0.125 0.09375 0.0625 0.03125 0
          1 0.96875 0.9375 0.90625 0.875 0.84375
          0.8125 0.78125 0.75 0.71875 0.6875 0.65625
          0.625 0.59375 0.5625 0.53125 0.5 0.46875
          0.4375 0.40625 0.375 0.34375 0.3125 0.28125
          0.25 0.21875 0.1875 0.15625 0.125 0.09375
          0.0625 0.03125 0 1 0.96875 0.9375
          0.90625 0.875 0.84375 0.8125 0.78125 0.75
          0.71875 0.6875 0.65625 0.625 0.59375 0.5625
          0.53125 0.5 0.46875 0.4375 0.40625 0.375
          0.34375 0.3125 0.28125 0.25 0.21875 0.1875
          0.15625 0.125 0.09375 0.0625 0.03125 0
          1 0.96875 0.9375 0.90625 0.875 0.84375
          0.8125 0.78125 0.75 0.71875 0.6875 0.65625
          0.625 0.59375 0.5625 0.53125 0.5 0.46875
          0.4375 0.40625 0.375 0.34375 0.3125 0.28125
          0.25 0.21875 0.1875 0.15625 0.125 0.09375
          0.0625 0.03125 0 1 0.96875 0.9375
          0.90625 0.875 0.84375 0.8125 0.78125 0.75
          0.71875 0.6875 0.65625 0.625 0.59375 0.5625
          0.53125 0.5 0.46875 0.4375 0.40625 0.375
          0.34375 0.3125 0.28125 0.25 0.21875 0.1875
          0.15625 0.125 0.09375 0.0625 0.03125 0
          1 0.96875 0.9375 0.90625 0.875 0.84375
          0.8125 0.78125 0.75 0.71875 0.6875 0.65625
          0.625 0.59375 0.5625 0.53125 0.5 0.46875
          0.4375 0.40625 0.375 0.34375 0.3125 0.28125
          0.25 0.21875 0.1875 0.15625 0.125 0.09375
          0.0625 0.03125 0 1 0.96875 0.9375
          0.90625 0.875 0.84375 0.8125 0.78125 0.75
          0.71875 0.6875 0.65625 0.625 0.59375 0.5625
          0.53125 0.5 0.46875 0.4375 0.40625 0.375
          0.34375 0.3125 0.28125 0.25 0.21875 0.1875
          0.15625 0.125 0.09375 0.0625 0.03125 0
          1 0.96875 0.9375 0.90625 0.875 0.84375
          0.8125 0.78125 0.75 0.71875 0.6875 0.65625
          0.625 0.59375 0.5625 0.53125 0.5 0.46875
          0.4375 0.40625 0.375 0.34375 0.3125 0.28125
          0.25 0.21875 0.1875 0.15625 0.125 0.09375
          0.0625 0.03125 0 1 0.96875 0.9375
          0.90625 0.875 0.84375 0.8125 0.78125 0.75
          0.71875 0.6875 0.65625 0.625 0.59375 0.5625
          0.53125 0.5 0.46875 0.4375 0.40625 0.375
          0.34375 0.3125 0.28125 0.25 0.21875 0.1875
          0.15625 0.125 0.09375 0.0625 0.03125 0
          1 0.96875 0.9375 0.90625 0.875 0.84375
          0.8125 0.78125 0.75 0.71875 0.6875 0.65625
          0.625 0.59375 0.5625 0.53125 0.5 0.46875
          0.4375 0.40625 0.375 0.34375 0.3125 0.28125
          0.25 0.21875 0.1875 0.15625 0.125 0.09375
          0.0625 0.03125 0 1 0.96875 0.9375
          0.90625 0.875 0.84375 0.8125 0.78125 0.75
          0.71875 0.6875 0.65625 0.625 0.59375 0.5625
          0.53125 0.5 0.46875 0.4375 0.40625 0.375
          0.34375 0.3125 0.28125 0.25 0.21875 0.1875
          0.15625 0.125 0.09375 0.0625 0.03125 0
          1 0.96875 0.9375 0.90625 0.875 0.84375
          0.8125 0.78125 0.75 0.71875 0.6875 0.65625
          0.625 0.59375 0.5625 0.53125 0.5 0.46875
          0.4375 0.40625 0.375 0.34375 0.3125 0.28125
          0.25 0.21875 0.1875 0.15625 0.125 0.09375
          0.0625 0.03125 0 1 0.96875 0.9375
          0.90625 0.875 0.84375 0.8125 0.78125 0.75
          0.71875 0.6875 0.65625 0.625 0.59375 0.5625
          0.53125 0.5 0.46875 0.4375 0.40625 0.375
          0.34375 0.3125 0.28125 0.25 0.21875 0.1875
          0.15625 0.125 0.09375 0.0625 0.03125 0
          1 0.96875 0.9375 0.90625 0.875 0.84375
          0.8125 0.78125 0.75 0.71875 0.6875 0.65625
          0.625 0.59375 0.5625 0.53125 0.5 0.46875
          0.4375 0.40625 0.375 0.34375 0.3125 0.28125
          0.25 0.21875 0.1875 0.15625 0.125 0.09375
          0.0625 0.03125 0
        </DataArray>
        <DataArray type="Float64" Name="darcy_velocity" NumberOfComponents="2" format="ascii" RangeMin="0.0001239" RangeMax="0.0001239">
          0.0001239 3.9684553797e-20 0.0001239 2.168404345e-19 0.0001239 5.3289225349e-19
          0.0001239 4.4094364641e-19 0.0001239 6.6310080298e-19 0.0001239 9.0172956971e-19
          0.0001239 1.6068427053e-19 0.0001239 -8.1315162936e-20 0.0001239 -1.6794704794e-19
          0.0001239 9.3894662421e-20 0.0001239 -1.6989310329e-19 0.0001239 -3.7363259434e-19
          0.0001239 2.6910448778e-19 0.0001239 6.3418941381e-20 0.0001239 5.996818616e-19
          0.0001239 1.9168143553e-19 0.0001239 6.9091816298e-19 0.0001239 -1.8778932484e-19
          0.0001239 -9.9211384492e-21 0.0001239 6.1323438875e-19 0.0001239 -2.9763415348e-20
          0.0001239 -1.8778932484e-19 0.0001239 -1.9602512993e-19 0.0001239 -9.3538509575e-20
          0.0001239 -4.6198474283e-19 0.0001239 1.9355763063e-20 0.0001239 8.5919579315e-21
          0.0001239 -1.1386730031e-19 0.0001239 -6.8249149616e-20 0.0001239 -2.3894998946e-20
          0.0001239 -5.653617453e-20 0.0001239 1.1579589059e-19 0.0001239 -3.067952708e-19
          0.0001239 -3.9684553797e-20 0.0001239 6.4131247073e-20 0.0001239 6.3333738763e-19
          0.0001239 2.8991979235e-19 0.0001239 4.0294442598e-19 0.0001239 1.771558807e-19