<?xml version="1.0"?>
<VTKFile type="UnstructuredGrid" version="0.1" byte_order="LittleEndian" header_type="UInt32">
  <UnstructuredGrid>
    <Piece NumberOfPoints="1089" NumberOfCells="1024">
      <PointData>
        <DataArray type="Float64" Name="concentration" format="ascii" RangeMin="0" RangeMax="1">
          1 0.98071594179 0.96083605605 0.94034832435 0.91924042738 0.89749967108
          0.87511290834 0.85206645679 0.82834601311 0.80393656448 0.7788222977 0.75298650672
          0.72641149908 0.69907850212 0.67096756955 0.6420574891 0.61232569204 0.58174816523
          0.55029936633 0.51795214308 0.48467765701 0.45044531248 0.41522269142 0.37897549448
          0.34166748888 0.3032604636 0.263714192 0.22298640239 0.18103275658 0.1378068365
          0.093260139078 0.047342079106 0 1 0.98071594179 0.96083605605
          0.94034832435 0.91924042738 0.89749967108 0.87511290834 0.85206645679 0.82834601311
          0.80393656448 0.7788222977 0.75298650672 0.72641149908 0.69907850212 0.67096756955
          0.6420574891 0.61232569204 0.58174816523 0.55029936633 0.51795214308 0.48467765701
          0.45044531248 0.41522269142 0.37897549448 0.34166748888 0.3032604636 0.263714192
          0.22298640239 0.18103275658 0.1378068365 0.093260139079 0.047342079106 0
          1 0.98071594179 0.96083605605 0.94034832435 0.91924042738 0.89749967108
          0.87511290834 0.85206645679 0.82834601311 0.80393656448 0.7788222977 0.75298650672
          0.72641149908 0.69907850212 0.67096756955 0.6420574891 0.61232569204 0.58174816523
          0.55029936633 0.51795214308 0.48467765701 0.45044531248 0.41522269142 0.37897549448
          0.34166748888 0.3032604636 0.263714192 0.22298640239 0.18103275658 0.1378068365
          0.093260139078 0.047342079106 0 1 0.98071594179 0.96083605605
          0.94034832435 0.91924042739 0.89749967108 0.87511290834 0.85206645679 0.82834601311
          0.80393656448 0.77882229771 0.75298650672 0.72641149908 0.69907850213 0.67096756955
          0.6420574891 0.61232569204 0.58174816523 0.55029936633 0.51795214308 0.48467765701
          0.45044531248 0.41522269142 0.37897549448 0.34166748888 0.3032604636 0.263714192
          0.22298640239 0.18103275657 0.1378068365 0.093260139078 0.047342079106 0
          1 0.98071594179 0.96083605605 0.94034832435 0.91924042739 0.89749967108
          0.87511290834 0.85206645679 0.82834601311 0.80393656448 0.77882229771 0.75298650673
          0.72641149909 0.69907850213 0.67096756955 0.6420574891 0.61232569205 0.58174816523
          0.55029936633 0.51795214308 0.48467765701 0.45044531248 0.41522269142 0.37897549448
          0.34166748888 0.3032604636 0.263714192 0.22298640239 0.18103275657 0.13780683649
          0.093260139077 0.047342079106 0 1 0.98071594179 0.96083605605
          0.94034832435 0.91924042739 0.89749967108 0.87511290834 0.85206645679 0.82834601311
          0.80393656448 0.77882229771 0.75298650673 0.72641149909 0.69907850213 0.67096756955
          0.6420574891 0.61232569205 0.58174816523 0.55029936633 0.51795214308 0.48467765701
          0.45044531248 0.41522269142 0.37897549448 0.34166748888 0.3032604636 0.263714192
          0.22298640239 0.18103275657 0.13780683649 0.093260139077 0.047342079106 0
          1 0.98071594179 0.96083605605 0.94034832435 0.91924042739 0.89749967108
          0.87511290834 0.85206645679 0.82834601311 0.80393656448 0.77882229771 0.75298650673
          0.72641149909 0.69907850213 0.67096756955 0.6420574891 0.61232569205 0.58174816523
          0.55029936634 0.51795214308 0.48467765701 0.45044531248 0.41522269142 0.37897549448
          0.34166748888 0.3032604636 0.263714192 0.22298640239 0.18103275657 0.1378068365
          0.093260139078 0.047342079106 0 1 0.98071594179 0.96083605605
          0.94034832435 0.91924042739 0.89749967109 0.87511290834 0.85206645679 0.82834601311
          0.80393656448 0.77882229771 0.75298650673 0.72641149909 0.69907850213 0.67096756955
          0.6420574891 0.61232569205 0.58174816523 0.55029936634 0.51795214308 0.48467765701
          0.45044531248 0.41522269142 0.37897549448 0.34166748889 0.3032604636 0.263714192
          0.22298640239 0.18103275658 0.1378068365 0.093260139078 0.047342079106 0
          1 0.98071594179 0.96083605605 0.94034832435 0.91924042739 0.89749967109
          0.87511290834 0.85206645679 0.82834601311 0.80393656448 0.77882229771 0.75298650673
          0.72641149909 0.69907850213 0.67096756956 0.64205748911 0.61232569205 0.58174816524
          0.55029936634 0.51795214309 0.48467765702 0.45044531248 0.41522269143 0.37897549448
          0.34166748889 0.3032604636 0.263714192 0.22298640239 0.18103275658 0.1378068365
          0.093260139079 0.047342079106 0 1 0.98071594179 0.96083605605
          0.94034832435 0.91924042739 0.89749967109 0.87511290835 0.85206645679 0.82834601312
          0.80393656449 0.77882229771 0.75298650673 0.72641149909 0.69907850213 0.67096756956
          0.64205748911 0.61232569205 0.58174816524 0.55029936634 0.51795214309 0.48467765702
          0.45044531249 0.41522269143 0.37897549448 0.34166748889 0.3032604636 0.263714192
          0.2229864024 0.18103275658 0.1378068365 0.093260139079 0.047342079107 0
          1 0.98071594179 0.96083605605 0.94034832436 0.91924042739 0.89749967109
          0.87511290835 0.8520664568 0.82834601312 0.80393656449 0.77882229772 0.75298650674
          0.7264114991 0.69907850214 0.67096756956 0.64205748911 0.61232569206 0.58174816524
          0.55029936635 0.51795214309 0.48467765702 0.45044531249 0.41522269143 0.37897549449
          0.34166748889 0.30326046361 0.263714192 0.2229864024 0.18103275658 0.1378068365
          0.09326013908 0.047342079107 0 1 0.98071594179 0.96083605605
          0.94034832436 0.91924042739 0.89749967109 0.87511290835 0.8520664568 0.82834601312
          0.80393656449 0.77882229772 0.75298650674 0.7264114991 0.69907850214 0.67096756956
          0.64205748911 0.61232569206 0.58174816524 0.55029936635 0.51795214309 0.48467765702
          0.45044531249 0.41522269143 0.37897549449 0.34166748889 0.30326046361 0.26371419201
          0.2229864024 0.18103275658 0.1378068365 0.09326013908 0.047342079107 0
          1 0.98071594179 0.96083605605 0.94034832436 0.91924042739 0.89749967109
          0.87511290835 0.8520664568 0.82834601312 0.80393656449 0.77882229772 0.75298650674
          0.7264114991 0.69907850214 0.67096756957 0.64205748912 0.61232569206 0.58174816525
          0.55029936635 0.5179521431 0.48467765703 0.45044531249 0.41522269144 0.37897549449
          0.3416674889 0.30326046361 0.26371419201 0.2229864024 0.18103275658 0.1378068365
          0.093260139081 0.047342079107 0 1 0.98071594179 0.96083605605
          0.94034832436 0.91924042739 0.89749967109 0.87511290835 0.8520664568 0.82834601312
          0.80393656449 0.77882229772 0.75298650674 0.7264114991 0.69907850214 0.67096756957
          0.64205748912 0.61232569206 0.58174816525 0.55029936635 0.5179521431 0.48467765703
          0.4504453125 0.41522269144 0.37897549449 0.3416674889 0.30326046361 0.26371419201
          0.2229864024 0.18103275658 0.1378068365 0.093260139082 0.047342079108 0
          1 0.98071594179 0.96083605605 0.94034832436 0.91924042739 0.89749967109
          0.87511290835 0.8520664568 0.82834601312 0.8039365645 0.77882229772 0.75298650674
          0.7264114991 0.69907850215 0.67096756957 0.64205748912 0.61232569207 0.58174816525
          0.55029936636 0.5179521431 0.48467765703 0.4504453125 0.41522269144 0.3789754945
          0.3416674889 0.30326046361 0.26371419201 0.2229864024 0.18103275658 0.1378068365
          0.093260139082 0.047342079108 0 1 0.98071594179 0.96083605605
          0.94034832436 0.9192404274 0.89749967109 0.87511290835 0.8520664568 0.82834601313
          0.8039365645 0.77882229773 0.75298650675 0.72641149911 0.69907850215 0.67096756957
          0.64205748912 0.61232569207 0.58174816525 0.55029936636 0.5179521431 0.48467765703
          0.4504453125 0.41522269144 0.3789754945 0.3416674889 0.30326046361 0.26371419201
          0.2229864024 0.18103275658 0.1378068365 0.093260139082 0.047342079108 0
          1 0.98071594179 0.96083605605 0.94034832436 0.9192404274 0.89749967109
          0.87511290835 0.8520664568 0.82834601313 0.8039365645 0.77882229773 0.75298650675
          0.72641149911 0.69907850215 0.67096756958 0.64205748912 0.61232569207 0.58174816526
          0.55029936636 0.51795214311 0.48467765703 0.4504453125 0.41522269144 0.3789754945
          0.3416674889 0.30326046361 0.26371419201 0.2229864024 0.18103275658 0.1378068365
          0.093260139083 0.047342079108 0 1 0.98071594179 0.96083605605
          0.94034832436 0.9192404274 0.8974996711 0.87511290836 0.8520664568 0.82834601313
          0.8039365645 0.77882229773 0.75298650675 0.72641149911 0.69907850215 0.67096756958
          0.64205748913 0.61232569207 0.58174816526 0.55029936636 0.51795214311 0.48467765704
          0.4504453125 0.41522269144 0.3789754945 0.3416674889 0.30326046362 0.26371419201
          0.2229864024 0.18103275659 0.1378068365 0.093260139083 0.047342079108 0
          1 0.98071594179 0.96083605605 0.94034832436 0.9192404274 0.8974996711
          0.87511290836 0.85206645681 0.82834601313 0.8039365645 0.77882229773 0.75298650675
          0.72641149911 0.69907850215 0.67096756958 0.64205748913 0.61232569207 0.58174816526
          0.55029936636 0.51795214311 0.48467765704 0.4504453125 0.41522269144 0.3789754945
          0.3416674889 0.30326046362 0.26371419201 0.22298640241 0.18103275659 0.1378068365
          0.093260139083 0.047342079109 0 1 0.98071594179 0.96083605605
          0.94034832436 0.9192404274 0.8974996711 0.87511290836 0.85206645681 0.82834601313
          0.8039365645 0.77882229773 0.75298650675 0.72641149911 0.69907850215 0.67096756958
          0.64205748913 0.61232569207 0.58174816526 0.55029936636 0.51795214311 0.48467765704
          0.4504453125 0.41522269145 0.3789754945 0.3416674889 0.30326046362 0.26371419201
          0.22298640241 0.18103275659 0.1378068365 0.093260139083 0.047342079109 0
          1 0.98071594179 0.96083605605 0.94034832436 0.9192404274 0.8974996711
          0.87511290836 0.85206645681 0.82834601313 0.8039365645 0.77882229773 0.75298650675
          0.72641149911 0.69907850215 0.67096756958 0.64205748913 0.61232569207 0.58174816526
          0.55029936636 0.51795214311 0.48467765704 0.4504453125 0.41522269145 0.3789754945
          0.3416674889 0.30326046362 0.26371419201 0.22298640241 0.18103275659 0.1378068365
          0.093260139083 0.047342079109 0 1 0.98071594179 0.96083605605
          0.94034832436 0.9192404274 0.8974996711 0.87511290836 0.85206645681 0.82834601313
          0.8039365645 0.77882229773 0.75298650675 0.72641149911 0.69907850215 0.67096756958
          0.64205748913 0.61232569207 0.58174816526 0.55029936636 0.51795214311 0.48467765704
          0.4504453125 0.41522269145 0.3789754945 0.3416674889 0.30326046362 0.26371419201
          0.22298640241 0.18103275659 0.1378068365 0.093260139083 0.047342079109 0
          1 0.98071594179 0.96083605605 0.94034832436 0.9192404274 0.8974996711
          0.87511290836 0.85206645681 0.82834601313 0.8039365645 0.77882229773 0.75298650675
          0.72641149911 0.69907850215 0.67096756958 0.64205748913 0.61232569207 0.58174816526
          0.55029936636 0.51795214311 0.48467765704 0.4504453125 0.41522269145 0.3789754945
          0.3416674889 0.30326046362 0.26371419201 0.22298640241 0.18103275659 0.1378068365
          0.093260139083 0.047342079108 0 1 0.98071594179 0.96083605605
          0.94034832436 0.9192404274 0.8974996711 0.87511290836 0.85206645681 0.82834601313
          0.8039365645 0.77882229773 0.75298650675 0.72641149911 0.69907850215 0.67096756958
          0.64205748913 0.61232569207 0.58174816526 0.55029936636 0.51795214311 0.48467765704
          0.4504453125 0.41522269144 0.3789754945 0.3416674889 0.30326046362 0.26371419201
          0.2229864024 0.18103275659 0.1378068365 0.093260139083 0.047342079108 0
          1 0.98071594179 0.96083605605 0.94034832436 0.9192404274 0.8974996711
          0.87511290836 0.85206645681 0.82834601313 0.8039365645 0.77882229773 0.75298650675
          0.72641149911 0.69907850215 0.67096756958 0.64205748913 0.61232569207 0.58174816526
          0.55029936636 0.51795214311 0.48467765704 0.4504453125 0.41522269144 0.3789754945
          0.3416674889 0.30326046362 0.26371419201 0.2229864024 0.18103275658 0.1378068365
          0.093260139083 0.047342079108 0 1 0.98071594179 0.96083605605
          0.94034832436 0.9192404274 0.8974996711 0.87511290836 0.85206645681 0.82834601313
          0.8039365645 0.77882229773 0.75298650675 0.72641149911 0.69907850215 0.67096756958
          0.64205748913 0.61232569207 0.58174816526 0.55029936636 0.51795214311 0.48467765704
          0.4504453125 0.41522269144 0.3789754945 0.3416674889 0.30326046361 0.26371419201
          0.2229864024 0.18103275658 0.1378068365 0.093260139082 0.047342079108 0
          1 0.98071594179 0.96083605605 0.94034832436 0.9192404274 0.8974996711
          0.87511290836 0.85206645681 0.82834601313 0.8039365645 0.77882229773 0.75298650675
          0.72641149911 0.69907850215 0.67096756958 0.64205748913 0.61232569207 0.58174816526
          0.55029936636 0.51795214311 0.48467765704 0.4504453125 0.41522269144 0.3789754945
          0.3416674889 0.30326046361 0.26371419201 0.2229864024 0.18103275658 0.1378068365
          0.093260139082 0.047342079108 0 1 0.98071594179 0.96083605605
          0.94034832436 0.9192404274 0.8974996711 0.87511290836 0.85206645681 0.82834601313
          0.8039365645 0.77882229773 0.75298650675 0.72641149911 0.69907850215 0.67096756958
          0.64205748913 0.61232569207 0.58174816526 0.55029936636 0.51795214311 0.48467765704
          0.4504453125 0.41522269144 0.3789754945 0.3416674889 0.30326046361 0.26371419201
          0.2229864024 0.18103275658 0.1378068365 0.093260139082 0.047342079108 0
          1 0.98071594179 0.96083605605 0.94034832436 0.9192404274 0.8974996711
          0.87511290836 0.85206645681 0.82834601313 0.8039365645 0.77882229773 0.75298650675
          0.72641149911 0.69907850215 0.67096756958 0.64205748913 0.61232569207 0.58174816526
          0.55029936636 0.51795214311 0.48467765704 0.4504453125 0.41522269144 0.3789754945
          0.3416674889 0.30326046361 0.26371419201 0.2229864024 0.18103275658 0.1378068365
          0.093260139081 0.047342079107 0 1 0.98071594179 0.96083605605
          0.94034832436 0.9192404274 0.8974996711 0.87511290836 0.85206645681 0.82834601313
          0.8039365645 0.77882229773 0.75298650675 0.72641149911 0.69907850216 0.67096756958
          0.64205748913 0.61232569207 0.58174816526 0.55029936636 0.51795214311 0.48467765704
          0.4504453125 0.41522269144 0.3789754945 0.3416674889 0.30326046361 0.26371419201
          0.2229864024 0.18103275658 0.1378068365 0.093260139081 0.047342079107 0
          1 0.98071594179 0.96083605606 0.94034832436 0.9192404274 0.8974996711
          0.87511290836 0.85206645681 0.82834601313 0.80393656451 0.77882229773 0.75298650676
          0.72641149912 0.69907850216 0.67096756958 0.64205748913 0.61232569208 0.58174816526
          0.55029936636 0.51795214311 0.48467765704 0.4504453125 0.41522269144 0.3789754945
          0.3416674889 0.30326046361 0.26371419201 0.2229864024 0.18103275658 0.1378068365
          0.093260139081 0.047342079107 0 1 0.98071594179 0.96083605606
          0.94034832436 0.9192404274 0.8974996711 0.87511290836 0.85206645681 0.82834601314
          0.80393656451 0.77882229774 0.75298650676 0.72641149912 0.69907850216 0.67096756958
          0.64205748913 0.61232569208 0.58174816526 0.55029936636 0.51795214311 0.48467765704
          0.4504453125 0.41522269144 0.3789754945 0.3416674889 0.30326046361 0.26371419201
          0.2229864024 0.18103275658 0.1378068365 0.09326013908 0.047342079107 0
          1 0.98071594179 0.96083605606 0.94034832436 0.9192404274 0.8974996711
          0.87511290836 0.85206645681 0.82834601314 0.80393656451 0.77882229774 0.75298650676
          0.72641149912 0.69907850216 0.67096756958 0.64205748913 0.61232569208 0.58174816526
          0.55029936636 0.51795214311 0.48467765704 0.4504453125 0.41522269144 0.3789754945
          0.3416674889 0.30326046361 0.26371419201 0.2229864024 0.18103275658 0.1378068365
          0.09326013908 0.047342079107 0
        </DataArray>
        <DataArray type="Float64" Name="pressure" format="ascii" RangeMin="0" RangeMax="1">
          1 0.96875 0.9375 0.90625 0.875 0.84375
          0.8125 0.78125 0.75 0.71875 0.6875 0.65625
          0.625 0.59375 0.5625 0.53125 0.5 0.46875
          0.4375 0.40625 0.375 0.34375 0.3125 0.28125
          0.25 0.21875 0.1875 0.15625 0.125 0.09375
          0.0625 0.03125 0 1 0.96875 0.9375
          0.90625 0.875 0.84375 0.8125 0.78125 0.75
          0.71875 0.6875 0.65625 0.625 0.59375 0.5625
          0.53125 0.5 0.46875 0.4375 0.40625 0.375
          0.34375 0.3125 0.28125 0.25 0.21875 0.1875
          0.15625 0.125 0.09375 0.0625 0.03125 0
          1 0.96875 0.9375 0.90625 0.875 0.84375
          0.8125 0.78125 0.75 0.71875 0.6875 0.65625
          0.625 0.59375 0.5625 0.53125 0.5 0.46875
          0.4375 0.40625 0.375 0.34375 0.3125 0.28125
          0.25 0.21875 0.1875 0.15625 0.125 0.09375
          0.0625 0.03125 0 1 0.96875 0.9375
          0.90625 0.875 0.84375 0.8125 0.78125 0.75
          0.71875 0.6875 0.65625 0.625 0.59375 0.5625
          0.53125 0.5 0.46875 0.4375 0.40625 0.375
          0.34375 0.3125 0.28125 0.25 0.21875 0.1875
          0.15625 0.125 0.09375 0.0625 0.03125 0
          1 0.96875 0.9375 0.90625 0.875 0.84375
          0.8125 0.78125 0.75 0.71875 0.6875 0.65625
          0.625 0.59375 0.5625 0.53125 0.5 0.46875
          0.4375 0.40625 0.375 0.34375 0.3125 0.28125
          0.25 0.21875 0.1875 0.15625 0.125 0.09375
          0.0625 0.03125 0 1 0.96875 0.9375
          0.90625 0.875 0.84375 0.8125 0.78125 0.75
          0.71875 0.6875 0.65625 0.625 0.59375 0.5625
          0.53125 0.5 0.46875 0.4375 0.40625 0.375
          0.34375 0.3125 0.28125 0.25 0.21875 0.1875
          0.15625 0.125 0.09375 0.0625 0.03125 0
          1 0.96875 0.9375 0.90625 0.875 0.84375
          0.8125 0.78125 0.75 0.71875 0.6875 0.65625
          0.625 0.59375 0.5625 0.53125 0.5 0.46875
          0.4375 0.40625 0.375 0.34375 0.3125 0.28125
          0.25 0.21875 0.1875 0.15625 0.125 0.09375
          0.0625 0.03125 0 1 0.96875 0.9375
          0.90625 0.875 0.84375 0.8125 0.78125 0.75
          0.71875 0.6875 0.65625 0.625 0.59375 0.5625
          0.53125 0.5 0.46875 0.4375 0.40625 0.375
          0.34375 0.3125 0.28125 0.25 0.21875 0.1875
          0.15625 0.125 0.09375 0.0625 0.03125 0
          1 0.96875 0.9375 0.90625 0.875 0.84375
          0.8125 0.78125 0.75 0.71875 0.6875 0.65625
          0.625 0.59375 0.5625 0.53125 0.5 0.46875
          0.4375 0.40625 0.375 0.34375 0.3125 0.28125
          0.25 0.21875 0.1875 0.15625 0.125 0.09375
          0.0625 0.03125 0 1 0.96875 0.9375
          0.90625 0.875 0.84375 0.8125 0.78125 0.75
          0.71875 0.6875 0.65625 0.625 0.59375 0.5625
          0.53125 0.5 0.46875 0.4375 0.40625 0.375
          0.34375 0.3125 0.28125 0.25 0.21875 0.1875
          0.15625 0.125 0.09375 0.0625 0.03125 0
          1 0.96875 0.9375 0.90625 0.875 0.84375
          0.8125 0.78125 0.75 0.71875 0.6875 0.65625
          0.625 0.59375 0.5625 0.53125 0.5 0.46875
          0.4375 0.40625 0.375 0.34375 0.3125 0.28125
          0.25 0.21875 0.1875 0.15625 0.125 0.09375
          0.0625 0.03125 0 1 0.96875 0.9375
          0.90625 0.875 0.84375 0.8125 0.78125 0.75
          0.71875 0.6875 0.65625 0.625 0.59375 0.5625
          0.53125 0.5 0.46875 0.4375 0.40625 0.375
          0.34375 0.3125 0.28125 0.25 0.21875 0.1875
          0.15625 0.125 0.09375 0.0625 0.03125 0
          1 0.96875 0.9375 0.90625 0.875 0.84375
          0.8125 0.78125 0.75 0.71875 0.6875 0.65625
          0.625 0.59375 0.5625 0.53125 0.5 0.46875
          0.4375 0.40625 0.375 0.34375 0.3125 0.28125
          0.25 0.21875 0.1875 0.15625 0.125 0.09375
          0.0625 0.03125 0 1 0.96875 0.9375
          0.90625 0.875 0.84375 0.8125 0.78125 0.75
          0.71875 0.6875 0.65625 0.625 0.59375 0.5625
          0.53125 0.5 0.46875 0.4375 0.40625 0.375
          0.34375 0.3125 0.28125 0.25 0.21875 0.1875
          0.15625 0.125 0.09375 0.0625 0.03125 0
          1 0.96875 0.9375 0.90625 0.875 0.84375
          0.8125 0.78125 0.75 0.71875 0.6875 0.65625
          0.625 0.59375 0.5625 0.53125 0.5 0.46875
          0.4375 0.40625 0.375 0.34375 0.3125 0.28125
          0.25 0.21875 0.1875 0.15625 0.125 0.09375
          0.0625 0.03125 0 1 0.96875 0.9375
          0.90625 0.875 0.84375 0.8125 0.78125 0.75
          0.71875 0.6875 0.65625 0.625 0.59375 0.5625
          0.53125 0.5 0.46875 0.4375 0.40625 0.375
          0.34375 0.3125 0.28125 0.25 0.21875 0.1875
          0.15625 0.125 0.09375 0.0625 0.03125 0
          1 0.96875 0.9375 0.90625 0.875 0.84375
          0.8125 0.78125 0.75 0.71875 0.6875 0.65625
          0.625 0.59375 0.5625 0.53125 0.5 0.46875
          0.4375 0.40625 0.375 0.34375 0.3125 0.28125
          0.25 0.21875 0.1875 0.15625 0.125 0.09375
          0.0625 0.03125 0 1 0.96875 0.9375
          0.90625 0.875 0.84375 0.8125 0.78125 0.75
          0.71875 0.6875 0.65625 0.625 0.59375 0.5625
          0.53125 0.5 0.46875 0.4375 0.40625 0.375
          0.34375 0.3125 0.28125 0.25 0.21875 0.1875
          0.15625 0.125 0.09375 0.0625 0.03125 0
          1 0.96875 0.9375 0.90625 0.875 0.84375
          0.8125 0.78125 0.75 0.71875 0.6875 0.65625
          0.625 0.59375 0.5625 0.53125 0.5 0.46875
          0.4375 0.40625 0.375 0.34375 0.3125 0.28125
          0.25 0.21875 0.1875 0.15625 0.125 0.09375
          0.0625 0.03125 0 1 0.96875 0.9375
          0.90625 0.875 0.84375 0.8125 0.78125 0.75
          0.71875 0.6875 0.65625 0.625 0.59375 0.5625
          0.53125 0.5 0.46875 0.4375 0.40625 0.375
          0.34375 0.3125 0.28125 0.25 0.21875 0.1875
          0.15625 0.125 0.09375 0.0625 0.03125 0
          1 0.96875 0.9375 0.90625 0.875 0.84375
          0.8125 0.78125 0.75 0.71875 0.6875 0.65625
          0.625 0.59375 0.5625 0.53125 0.5 0.46875
          0.4375 0.40625 0.375 0.34375 0.3125 0.28125
          0.25 0.21875 0.1875 0.15625 0.125 0.09375
          0.0625 0.03125 0 1 0.96875 0.9375
          0.90625 0.875 0.84375 0.8125 0.78125 0.75
          0.71875 0.6875 0.65625 0.625 0.59375 0.5625
          0.53125 0.5 0.46875 0.4375 0.40625 0.375
          0.34375 0.3125 0.28125 0.25 0.21875 0.1875
          0.15625 0.125 0.09375 0.0625 0.03125 0
          1 0.96875 0.9375 0.90625 0.875 0.84375
          0.8125 0.78125 0.75 0.71875 0.6875 0.65625
          0.625 0.59375 0.5625 0.53125 0.5 0.46875
          0.4375 0.40625 0.375 0.34375 0.3125 0.28125
          0.25 0.21875 0.1875 0.15625 0.125 0.09375
          0.0625 0.03125 0 1 0.96875 0.9375
          0.90625 0.875 0.84375 0.8125 0.78125 0.75
          0.71875 0.6875 0.65625 0.625 0.59375 0.5625
          0.53125 0.5 0.46875 0.4375 0.40625 0.375
          0.34375 0.3125 0.28125 0.25 0.21875 0.1875
          0.15625 0.125 0.09375 0.0625 0.03125 0
          1 0.96875 0.9375 0.90625 0.875 0.84375
          0.8125 0.78125 0.75 0.71875 0.6875 0.65625
          0.625 0.59375 0.5625 0.53125 0.5 0.46875
          0.4375 0.40625 0.375 0.34375 0.3125 0.28125
          0.25 0.21875 0.1875 0.15625 0.125 0.09375
          0.0625 0.03125 0 1 0.96875 0.9375
          0.90625 0.875 0.84375 0.8125 0.78125 0.75
          0.71875 0.6875 0.65625 0.625 0.59375 0.5625
          0.53125 0.5 0.46875 0.4375 0.40625 0.375
          0.34375 0.3125 0.28125 0.25 0.21875 0.1875
          0.15625 0.125 0.09375 0.0625 0.03125 0
          1 0.96875 0.9375 0.90625 0.875 0.84375
          0.8125 0.78125 0.75 0.71875 0.6875 0.65625
          0.625 0.59375 0.5625 0.53125 0.5 0.46875
          0.4375 0.40625 0.375 0.34375 0.3125 0.28125
          0.25 0.21875 0.1875 0.15625 0.125 0.09375
          0.0625 0.03125 0 1 0.96875 0.9375
          0.90625 0.875 0.84375 0.8125 0.78125 0.75
          0.71875 0.6875 0.65625 0.625 0.59375 0.5625
          0.53125 0.5 0.46875 0.4375 0.40625 0.375
          0.34375 0.3125 0.28125 0.25 0.21875 0.1875
          0.15625 0.125 0.09375 0.0625 0.03125 0
          1 0.96875 0.9375 0.90625 0.875 0.84375
          0.8125 0.78125 0.75 0.71875 0.6875 0.65625
          0.625 0.59375 0.5625 0.53125 0.5 0.46875
          0.4375 0.40625 0.375 0.34375 0.3125 0.28125
          0.25 0.21875 0.1875 0.15625 0.125 0.09375
          0.0625 0.03125 0 1 0.96875 0.9375
          0.90625 0.875 0.84375 0.8125 0.78125 0.75
          0.71875 0.6875 0.65625 0.625 0.59375 0.5625
          0.53125 0.5 0.46875 0.4375 0.40625 0.375
          0.34375 0.3125 0.28125 0.25 0.21875 0.1875
          0.15625 0.125 0.09375 0.0625 0.03125 0
          1 0.96875 0.9375 0.90625 0.875 0.84375
          0.8125 0.78125 0.75 0.71875 0.6875 0.65625
          0.625 0.59375 0.5625 0.53125 0.5 0.46875
          0.4375 0.40625 0.375 0.34375 0.3125 0.28125
          0.25 0.21875 0.1875 0.15625 0.125 0.09375
          0.0625 0.03125 0 1 0.96875 0.9375
          0.90625 0.875 0.84375 0.8125 0.78125 0.75
          0.71875 0.6875 0.65625 0.625 0.59375 0.5625
          0.53125 0.5 0.46875 0.4375 0.40625 0.375
          0.34375 0.3125 0.28125 0.25 0.21875 0.1875
          0.15625 0.125 0.09375 0.0625 0.03125 0
          1 0.96875 0.9375 0.90625 0.875 0.84375
          0.8125 0.78125 0.75 0.71875 0.6875 0.65625
          0.625 0.59375 0.5625 0.53125 0.5 0.46875
          0.4375 0.40625 0.375 0.34375 0.3125 0.28125
          0.25 0.21875 0.1875 0.15625 0.125 0.09375
          0.0625 0.03125 0
        </DataArray>
        <DataArray type="Float64" Name="darcy_velocity" NumberOfComponents="2" format="ascii" RangeMin="0.0001239" RangeMax="0.0001239">
          0.0001239 4.7336542279e-19 0.0001239 3.741540383e-19 0.0001239 2.0426093501e-19
          0.0001239 4.4094364641e-19 0.0001239 2.8168398726e-19 0.0001239 -5.7452286263e-19
          0.0001239 -1.4278804897e-19 0.0001239 -7.4246991057e-19 0.0001239 1.1905366139e-19
          0.0001239 -5.0384114383e-19 0.0001239 8.1457624075e-19 0.0001239 8.6152357196e-19
          0.0001239 -4.4963103521e-19 0.0001239 -4.4626036848e-19 0.0001239 -2.2676157295e-19
          0.0001239 -9.6553023457e-20 0.0001239 3.1605181899e-19 0.0001239 -1.3260618855e-19
          0.0001239 1.7255146432e-19 0.0001239 -3.8711526125e-20 0.0001239 1.7618285303e-19
          0.0001239 -1.3721060492e-19 0.0001239 -1.1736832803e-19 0.0001239 1.7884121406e-19
          0.0001239 -1.1059206445e-19 0.0001239 -1.4881707674e-20 0.0001239 -7.3209718841e-20
          0.0001239 -9.4867690092e-20 0.0001239 1.4217117415e-19 0.0001239 -2.6553359982e-20
          0.0001239 1.6276068686e-20 0.0001239 4.6327260057e-20 0.0001239 -2.9654183722e-19
          0.0001239 5.5273453038e-19 0.0001239 -1.5873821519e-19 0.0001239 7.9765304687e-19
          0.0001239 3.18970902e-19 0.0001239 1.5536754846e-19 0.0001239 2.6583610355e-21
          0.0001239 -4.4431431314e-19 0.0001239 -2.5120826622e-19 0.0001239 -2.4660384984e-19
          0.0001239 -6.6789608109e-20 0.0001239 4.2641809158e-19 0.0001239 6.1712649944e-19
          0.0001239 1.4012968794e-19 0.0001239 1.8513096381e-19 0.0001239 3.0736443019e-20
          0.0001239 -3.7026192761e-20 0.0001239 2.9886790313e-19 0.0001239 6.6433455263e-20
          0.0001239 5.1026125456e-19 0.0001239 2.7866947338e-19 0.0001239 -7.7492912494e-21
          0.0001239 5.0222567071e-20 0.0001239 -7.1750177334e-20 0.0001239 6.5460427591e-20
          0.0001239 -5.9348754272e-20 0.0001239 1.4395193838e-20 0.0001239 -4.5131636857e-20
          0.0001239 3.2908290219e-20 0.0001239 1.9075612329e-19 0.0001239 -4.7700959681e-20
          0.0001239 -5.1575605306e-20 0.0001239 3.8687668408e-20 0.0001239 -2.986898267e-19
          0.0001239 5.1304997659e-19 0.0001239 -7.9750831064e-21 0.0001239 3.2694598511e-19
          0.0001239 5.3386528116e-19 0.0001239 5.8904841745e-19 0.0001239 8.8525795954e-19
          0.0001239 -4.6947331211e-20 0.0001239 3.1339345795e-19 0.0001239 -3.8018306606e-19
          0.0001239 2.0497324071e-19 0.0001239 7.5025413194e-20 0.0001239 3.7149567726e-19
          0.0001239 4.3368086899e-19 0.0001239 7.2094230031e-19 0.0001239 3.8708969063e-19
          0.0001239 2.2313018424e-19 0.0001239 -5.5539289142e-20 0.0001239 1.0926288393e-19
          0.0001239 -4.7789997893e-20 0.0001239 3.3038651208e-20 0.0001239 -7.6189302601e-21
          0.0001239 -4.0777463421e-19 0.0001239 -2.3473665605e-20 0.0001239 -1.4363071566e-19
          0.0001239 -9.5045766516e-20 0.0001239 1.5372993053e-19 0.0001239 -2.0769678224e-19
          0.0001239 2.0249295609e-19 0.0001239 2.2736098271e-19 0.0001239 -3.2908290219e-20
          0.0001239 -1.721539887e-19 0.0001239 3.5676350855e-20 0.0001239 -3.0083781619e-19
          0.0001239 5.9241908418e-19 0.0001239 -4.2342914832e-20 0.0001239 1.0744718958e-19
          0.0001239 -2.998409308e-19 0.0001239 2.6378776571e-19 0.0001239 6.0889069435e-19
          0.0001239 6.1783880513e-19 0.0001239 1.219727444e-19 0.0001239 -1.263164388e-19
          0.0001239 3.5307801175e-19 0.0001239 1.8610399148e-19 0.0001239 -7.7781076997e-19
          0.0001239 1.4810477105e-19 0.0001239 2.9763415348e-20 0.0001239 4.218136752e-19
          0.0001239 2.168404345e-19 0.0001239 4.7868214486e-19 0.0001239 1.6794704794e-19
          0.0001239 -5.0166929663e-19 0.0001239 -1.2839285514e-19 0.0001239 1.5536754846e-19
          0.0001239 -3.2645947127e-19 0.0001239 3.8841887115e-20 0.0001239 1.183413557e-19
          0.0001239 4.7920358882e-20 0.0001239 1.0272987727e-19 0.0001239 -1.3521683415e-19
          0.0001239 2.4316332287e-20 0.0001239 1.5034179874e-19 0.0001239 -8.1582277571e-20