<VTKFile type="UnstructuredGrid" version="0.1" byte_order="LittleEndian">
  <UnstructuredGrid>
    <Piece NumberOfPoints="341" NumberOfCells="100">
      <PointData>
       <DataArray type="Float64" Name="displacement_ana" NumberOfComponents="2" format="ascii" RangeMin="0" RangeMax="0.05535261963">
0	0
0.0025	0
0.0025	-0.005
4.71657853785722E-19	-0.005
0.00125	0
0.0025	-0.0025
0.00125	-0.005
2.35828926892861E-19	-0.0025
0.005	0
0.005	-0.005
0.00375	0
0.005	-0.0025
0.00375	-0.005
0.0075	0
0.0075	-0.005
0.00625	0
0.0075	-0.0025
0.00625	-0.005
0.01	0
0.01	-0.005
0.00875	0
0.01	-0.0025
0.00875	-0.005
0.0125	0
0.0125	-0.005
0.01125	0
0.0125	-0.0025
0.01125	-0.005
0.0149999996	0
0.0149999996	-0.005
0.01375	0
0.0149999996	-0.0025
0.01375	-0.005
0.0174998943	0
0.0174998943	-0.005
0.0162499927	0
0.0174998943	-0.0025
0.0162499927	-0.005
0.0199919568	0
0.0199919568	-0.005
0.0187489133	0
0.0199919568	-0.0025
0.0187489133	-0.005
0.0223267645	0
0.0223267645	-0.005
0.0212066264	0
0.0223267645	-0.0025
0.0212066264	-0.005
0.0237637762	0
0.0237637762	-0.005
0.0232260051	0
0.0237637762	-0.0025
0.0232260051	-0.005
0.0025	-0.01
9.43336949593323E-19	-0.01
0.0025	-0.0075
0.00125	-0.01
7.07508022700462E-19	-0.0075
0.005	-0.01
0.005	-0.0075
0.00375	-0.01
0.0075	-0.01
0.0075	-0.0075
0.00625	-0.01
0.01	-0.01
0.01	-0.0075
0.00875	-0.01
0.0125	-0.01
0.0125	-0.0075
0.01125	-0.01
0.0149999996	-0.01
0.0149999996	-0.0075
0.01375	-0.01
0.0174998943	-0.01
0.0174998943	-0.0075
0.0162499927	-0.01
0.0199919568	-0.01
0.0199919568	-0.0075
0.0187489133	-0.01
0.0223267645	-0.01
0.0223267645	-0.0075
0.0212066264	-0.01
0.0237637762	-0.01
0.0237637762	-0.0075
0.0232260051	-0.01
0.0025	-0.015
1.41499480337905E-18	-0.015
0.0025	-0.0125
0.00125	-0.015
1.17916587648618E-18	-0.0125
0.005	-0.015
0.005	-0.0125
0.00375	-0.015
0.0075	-0.015
0.0075	-0.0125
0.00625	-0.015
0.01	-0.015
0.01	-0.0125
0.00875	-0.015
0.0125	-0.015
0.0125	-0.0125
0.01125	-0.015
0.0149999996	-0.015
0.0149999996	-0.0125
0.01375	-0.015
0.0174998943	-0.015
0.0174998943	-0.0125
0.0162499927	-0.015
0.0199919568	-0.015
0.0199919568	-0.0125
0.0187489133	-0.015
0.0223267645	-0.015
0.0223267645	-0.0125
0.0212066264	-0.015
0.0237637762	-0.015
0.0237637762	-0.0125
0.0232260051	-0.015
0.0025	-0.02
1.88667389918665E-18	-0.02
0.0025	-0.0175
0.00125	-0.02
1.65084497229378E-18	-0.0175
0.005	-0.02
0.005	-0.0175
0.00375	-0.02
0.0075	-0.02
0.0075	-0.0175
0.00625	-0.02
0.01	-0.02
0.01	-0.0175
0.00875	-0.02
0.0125	-0.02
0.0125	-0.0175
0.01125	-0.02
0.0149999996	-0.02
0.0149999996	-0.0175
0.01375	-0.02
0.0174998943	-0.02
0.0174998943	-0.0175
0.0162499927	-0.02
0.0199919568	-0.02
0.0199919568	-0.0175
0.0187489133	-0.02
0.0223267645	-0.02
0.0223267645	-0.0175
0.0212066264	-0.02
0.0237637762	-0.02
0.0237637762	-0.0175
0.0232260051	-0.02
0.0025	-0.025
2.35828926892861E-18	-0.025
0.0025	-0.0225
0.00125	-0.025
2.12250282607951E-18	-0.0225
0.005	-0.025
0.005	-0.0225
0.00375	-0.025
0.0075	-0.025
0.0075	-0.0225
0.00625	-0.025
0.01	-0.025
0.01	-0.0225
0.00875	-0.025
0.0125	-0.025
0.0125	-0.0225
0.01125	-0.025
0.0149999996	-0.025
0.0149999996	-0.0225
0.01375	-0.025
0.0174998943	-0.025
0.0174998943	-0.0225
0.0162499927	-0.025
0.0199919568	-0.025
0.0199919568	-0.0225
0.0187489133	-0.025
0.0223267645	-0.025
0.0223267645	-0.0225
0.0212066264	-0.025
0.0237637762	-0.025
0.0237637762	-0.0225
0.0232260051	-0.025
0.0025	-0.03
2.8300745748456E-18	-0.03
0.0025	-0.0275
0.00125	-0.03
2.59407571177772E-18	-0.0275
0.005	-0.03
0.005	-0.0275
0.00375	-0.03
0.0075	-0.03
0.0075	-0.0275
0.00625	-0.03
0.01	-0.03
0.01	-0.0275
0.00875	-0.03
0.0125	-0.03
0.0125	-0.0275
0.01125	-0.03
0.0149999996	-0.03
0.0149999996	-0.0275
0.01375	-0.03
0.0174998943	-0.03
0.0174998943	-0.0275
0.0162499927	-0.03
0.0199919568	-0.03
0.0199919568	-0.0275
0.0187489133	-0.03
0.0223267645	-0.03
0.0223267645	-0.0275
0.0212066264	-0.03
0.0237637762	-0.03
0.0237637762	-0.0275
0.0232260051	-0.03
0.0025	-0.035
3.30164746054381E-18	-0.035
0.0025	-0.0325
0.00125	-0.035
3.06586101769471E-18	-0.0325
0.005	-0.035
0.005	-0.0325
0.00375	-0.035
0.0075	-0.035
0.0075	-0.0325
0.00625	-0.035
0.01	-0.035
0.01	-0.0325
0.00875	-0.035
0.0125	-0.035
0.0125	-0.0325
0.01125	-0.035
0.0149999996	-0.035
0.0149999996	-0.0325
0.01375	-0.035
0.0174998943	-0.035
0.0174998943	-0.0325
0.0162499927	-0.035
0.0199919568	-0.035
0.0199919568	-0.0325
0.0187489133	-0.035
0.0223267645	-0.035
0.0223267645	-0.0325
0.0212066264	-0.035
0.0237637762	-0.035
0.0237637762	-0.0325
0.0232260051	-0.035
0.0025	-0.04
3.7734327664608E-18	-0.04
0.0025	-0.0375
0.00125	-0.04
3.53743390339292E-18	-0.0375
0.005	-0.04
0.005	-0.0375
0.00375	-0.04
0.0075	-0.04
0.0075	-0.0375
0.00625	-0.04
0.01	-0.04
0.01	-0.0375
0.00875	-0.04
0.0125	-0.04
0.0125	-0.0375
0.01125	-0.04
0.0149999996	-0.04
0.0149999996	-0.0375
0.01375	-0.04
0.0174998943	-0.04
0.0174998943	-0.0375
0.0162499927	-0.04
0.0199919568	-0.04
0.0199919568	-0.0375
0.0187489133	-0.04
0.0223267645	-0.04
0.0223267645	-0.0375
0.0212066264	-0.04
0.0237637762	-0.04
0.0237637762	-0.0375
0.0232260051	-0.04
0.0025	-0.045
4.24500565215901E-18	-0.045
0.0025	-0.0425
0.00125	-0.045
4.00921920930991E-18	-0.0425
0.005	-0.045
0.005	-0.0425
0.00375	-0.045
0.0075	-0.045
0.0075	-0.0425
0.00625	-0.045
0.01	-0.045
0.01	-0.0425
0.00875	-0.045
0.0125	-0.045
0.0125	-0.0425
0.01125	-0.045
0.0149999996	-0.045
0.0149999996	-0.0425
0.01375	-0.045
0.0174998943	-0.045
0.0174998943	-0.0425
0.0162499927	-0.045
0.0199919568	-0.045
0.0199919568	-0.0425
0.0187489133	-0.045
0.0223267645	-0.045
0.0223267645	-0.0425
0.0212066264	-0.045
0.0237637762	-0.045
0.0237637762	-0.0425
0.0232260051	-0.045
0.0025	-0.05
4.71657853785722E-18	-0.05
0.0025	-0.0475
0.00125	-0.05
4.48079209500812E-18	-0.0475
0.005	-0.05
0.005	-0.0475
0.00375	-0.05
0.0075	-0.05
0.0075	-0.0475
0.00625	-0.05
0.01	-0.05
0.01	-0.0475
0.00875	-0.05
0.0125	-0.05
0.0125	-0.0475
0.01125	-0.05
0.0149999996	-0.05
0.0149999996	-0.0475
0.01375	-0.05
0.0174998943	-0.05
0.0174998943	-0.0475
0.0162499927	-0.05
0.0199919568	-0.05
0.0199919568	-0.0475
0.0187489133	-0.05
0.0223267645	-0.05
0.0223267645	-0.0475
0.0212066264	-0.05
0.0237637762	-0.05
0.0237637762	-0.0475
0.0232260051	-0.05

        </DataArray>
        <DataArray type="Float64" Name="displacement" NumberOfComponents="2" format="ascii" RangeMin="0" RangeMax="0.05535261963">
          0 0 0.0025008488422 0 0.0025008488422 -0.0050000000745
          0 -0.0050000000745 0.0012518765119 0 0.0025008488422 -0.0025000000373
          0.0012518765119 -0.0050000000745 0 -0.0025000000373 0.0049994535647 0
          0.0049994535647 -0.0050000000745 0.0037525714583 0 0.0049994535647 -0.0025000000373
          0.0037525714583 -0.0050000000745 0.0074989142504 0 0.0074989142504 -0.0050000000745
          0.0062517572776 0 0.0074989142504 -0.0025000000373 0.0062517572776 -0.0050000000745
          0.0099987481151 0 0.0099987481151 -0.0050000000745 0.0087513897998 0
          0.0099987481151 -0.0025000000373 0.0087513897998 -0.0050000000745 0.012498801457 0
          0.012498801457 -0.0050000000745 0.011251372825 0 0.012498801457 -0.0025000000373
          0.011251372825 -0.0050000000745 0.014997782268 0 0.014997782268 -0.0050000000745
          0.013750477467 0 0.014997782268 -0.0025000000373 0.013750477467 -0.0050000000745
          0.017499936886 0 0.017499936886 -0.0050000000745 0.016252659779 0
          0.017499936886 -0.0025000000373 0.016252659779 -0.0050000000745 0.020018153774 0
          0.020018153774 -0.0050000000745 0.018765109279 0 0.020018153774 -0.0025000000373
          0.018765109279 -0.0050000000745 0.022345355405 0 0.022345355405 -0.0050000000745
          0.021127292393 0 0.022345355405 -0.0025000000373 0.021127292393 -0.0050000000745
          0.023746841894 0 0.023746841894 -0.0050000000745 0.022837611021 0
          0.023746841894 -0.0025000000373 0.022837611021 -0.0050000000745 0.0025008488422 -0.010000000149
          0 -0.010000000149 0.0025008488422 -0.007500000298 0.0012518765119 -0.010000000149
          0 -0.007500000298 0.0049994535647 -0.010000000149 0.0049994535647 -0.007500000298
          0.0037525714583 -0.010000000149 0.0074989142504 -0.010000000149 0.0074989142504 -0.007500000298
          0.0062517572776 -0.010000000149 0.0099987481151 -0.010000000149 0.0099987481151 -0.007500000298
          0.0087513897998 -0.010000000149 0.012498801457 -0.010000000149 0.012498801457 -0.007500000298
          0.011251372825 -0.010000000149 0.014997782268 -0.010000000149 0.014997782268 -0.007500000298
          0.013750477467 -0.010000000149 0.017499936886 -0.010000000149 0.017499936886 -0.007500000298
          0.016252659779 -0.010000000149 0.020018153774 -0.010000000149 0.020018153774 -0.007500000298
          0.018765109279 -0.010000000149 0.022345355405 -0.010000000149 0.022345355405 -0.007500000298
          0.021127292393 -0.010000000149 0.023746841894 -0.010000000149 0.023746841894 -0.007500000298
          0.022837611021 -0.010000000149 0.0025008488422 -0.015000000596 0 -0.015000000596
          0.0025008488422 -0.0125 0.0012518765119 -0.015000000596 0 -0.0125
          0.0049994535647 -0.015000000596 0.0049994535647 -0.0125 0.0037525714583 -0.015000000596
          0.0074989142504 -0.015000000596 0.0074989142504 -0.0125 0.0062517572776 -0.015000000596
          0.0099987481151 -0.015000000596 0.0099987481151 -0.0125 0.0087513897998 -0.015000000596
          0.012498801457 -0.015000000596 0.012498801457 -0.0125 0.011251372825 -0.015000000596
          0.014997782268 -0.015000000596 0.014997782268 -0.0125 0.013750477467 -0.015000000596
          0.017499936886 -0.015000000596 0.017499936886 -0.0125 0.016252659779 -0.015000000596
          0.020018153774 -0.015000000596 0.020018153774 -0.0125 0.018765109279 -0.015000000596
          0.022345355405 -0.015000000596 0.022345355405 -0.0125 0.021127292393 -0.015000000596
          0.023746841894 -0.015000000596 0.023746841894 -0.0125 0.022837611021 -0.015000000596
          0.0025008488422 -0.020000000298 0 -0.020000000298 0.0025008488422 -0.017499999702
          0.0012518765119 -0.020000000298 0 -0.017499999702 0.0049994535647 -0.020000000298
          0.0049994535647 -0.017499999702 0.0037525714583 -0.020000000298 0.0074989142504 -0.020000000298
          0.0074989142504 -0.017499999702 0.0062517572776 -0.020000000298 0.0099987481151 -0.020000000298
          0.0099987481151 -0.017499999702 0.0087513897998 -0.020000000298 0.012498801457 -0.020000000298
          0.012498801457 -0.017499999702 0.011251372825 -0.020000000298 0.014997782268 -0.020000000298
          0.014997782268 -0.017499999702 0.013750477467 -0.020000000298 0.017499936886 -0.020000000298
          0.017499936886 -0.017499999702 0.016252659779 -0.020000000298 0.020018153774 -0.020000000298
          0.020018153774 -0.017499999702 0.018765109279 -0.020000000298 0.022345355405 -0.020000000298
          0.022345355405 -0.017499999702 0.021127292393 -0.020000000298 0.023746841894 -0.020000000298
          0.023746841894 -0.017499999702 0.022837611021 -0.020000000298 0.0025008488422 -0.025
          0 -0.025 0.0025008488422 -0.022499999404 0.0012518765119 -0.025
          0 -0.022499999404 0.0049994535647 -0.025 0.0049994535647 -0.022499999404
          0.0037525714583 -0.025 0.0074989142504 -0.025 0.0074989142504 -0.022499999404
          0.0062517572776 -0.025 0.0099987481151 -0.025 0.0099987481151 -0.022499999404
          0.0087513897998 -0.025 0.012498801457 -0.025 0.012498801457 -0.022499999404
          0.011251372825 -0.025 0.014997782268 -0.025 0.014997782268 -0.022499999404
          0.013750477467 -0.025 0.017499936886 -0.025 0.017499936886 -0.022499999404
          0.016252659779 -0.025 0.020018153774 -0.025 0.020018153774 -0.022499999404
          0.018765109279 -0.025 0.022345355405 -0.025 0.022345355405 -0.022499999404
          0.021127292393 -0.025 0.023746841894 -0.025 0.023746841894 -0.022499999404
          0.022837611021 -0.025 0.0025008488422 -0.030000001192 0 -0.030000001192
          0.0025008488422 -0.027500000596 0.0012518765119 -0.030000001192 0 -0.027500000596
          0.0049994535647 -0.030000001192 0.0049994535647 -0.027500000596 0.0037525714583 -0.030000001192
          0.0074989142504 -0.030000001192 0.0074989142504 -0.027500000596 0.0062517572776 -0.030000001192
          0.0099987481151 -0.030000001192 0.0099987481151 -0.027500000596 0.0087513897998 -0.030000001192
          0.012498801457 -0.030000001192 0.012498801457 -0.027500000596 0.011251372825 -0.030000001192
          0.014997782268 -0.030000001192 0.014997782268 -0.027500000596 0.013750477467 -0.030000001192
          0.017499936886 -0.030000001192 0.017499936886 -0.027500000596 0.016252659779 -0.030000001192
          0.020018153774 -0.030000001192 0.020018153774 -0.027500000596 0.018765109279 -0.030000001192
          0.022345355405 -0.030000001192 0.022345355405 -0.027500000596 0.021127292393 -0.030000001192
          0.023746841894 -0.030000001192 0.023746841894 -0.027500000596 0.022837611021 -0.030000001192
          0.0025008488422 -0.034999999404 0 -0.034999999404 0.0025008488422 -0.032499998808
          0.0012518765119 -0.034999999404 0 -0.032499998808 0.0049994535647 -0.034999999404
          0.0049994535647 -0.032499998808 0.0037525714583 -0.034999999404 0.0074989142504 -0.034999999404
          0.0074989142504 -0.032499998808 0.0062517572776 -0.034999999404 0.0099987481151 -0.034999999404
          0.0099987481151 -0.032499998808 0.0087513897998 -0.034999999404 0.012498801457 -0.034999999404
          0.012498801457 -0.032499998808 0.011251372825 -0.034999999404 0.014997782268 -0.034999999404
          0.014997782268 -0.032499998808 0.013750477467 -0.034999999404 0.017499936886 -0.034999999404
          0.017499936886 -0.032499998808 0.016252659779 -0.034999999404 0.020018153774 -0.034999999404
          0.020018153774 -0.032499998808 0.018765109279 -0.034999999404 0.022345355405 -0.034999999404
          0.022345355405 -0.032499998808 0.021127292393 -0.034999999404 0.023746841894 -0.034999999404
          0.023746841894 -0.032499998808 0.022837611021 -0.034999999404 0.0025008488422 -0.040000000596
          0 -0.040000000596 0.0025008488422 -0.0375 0.0012518765119 -0.040000000596
          0 -0.0375 0.0049994535647 -0.040000000596 0.0049994535647 -0.0375
          0.0037525714583 -0.040000000596 0.0074989142504 -0.040000000596 0.0074989142504 -0.0375
          0.0062517572776 -0.040000000596 0.0099987481151 -0.040000000596 0.0099987481151 -0.0375
          0.0087513897998 -0.040000000596 0.012498801457 -0.040000000596 0.012498801457 -0.0375
          0.011251372825 -0.040000000596 0.014997782268 -0.040000000596 0.014997782268 -0.0375
          0.013750477467 -0.040000000596 0.017499936886 -0.040000000596 0.017499936886 -0.0375
          0.016252659779 -0.040000000596 0.020018153774 -0.040000000596 0.020018153774 -0.0375
          0.018765109279 -0.040000000596 0.022345355405 -0.040000000596 0.022345355405 -0.0375
          0.021127292393 -0.040000000596 0.023746841894 -0.040000000596 0.023746841894 -0.0375
          0.022837611021 -0.040000000596 0.0025008488422 -0.044999998808 0 -0.044999998808
          0.0025008488422 -0.042500001192 0.0012518765119 -0.044999998808 0 -0.042500001192
          0.0049994535647 -0.044999998808 0.0049994535647 -0.042500001192 0.0037525714583 -0.044999998808
          0.0074989142504 -0.044999998808 0.0074989142504 -0.042500001192 0.0062517572776 -0.044999998808
          0.0099987481151 -0.044999998808 0.0099987481151 -0.042500001192 0.0087513897998 -0.044999998808
          0.012498801457 -0.044999998808 0.012498801457 -0.042500001192 0.011251372825 -0.044999998808
          0.014997782268 -0.044999998808 0.014997782268 -0.042500001192 0.013750477467 -0.044999998808
          0.017499936886 -0.044999998808 0.017499936886 -0.042500001192 0.016252659779 -0.044999998808
          0.020018153774 -0.044999998808 0.020018153774 -0.042500001192 0.018765109279 -0.044999998808
          0.022345355405 -0.044999998808 0.022345355405 -0.042500001192 0.021127292393 -0.044999998808
          0.023746841894 -0.044999998808 0.023746841894 -0.042500001192 0.022837611021 -0.044999998808
          0.0025008488422 -0.05 0 -0.05 0.0025008488422 -0.047499999404
          0.0012518765119 -0.05 0 -0.047499999404 0.0049994535647 -0.05
          0.0049994535647 -0.047499999404 0.0037525714583 -0.05 0.0074989142504 -0.05
          0.0074989142504 -0.047499999404 0.0062517572776 -0.05 0.0099987481151 -0.05
          0.0099987481151 -0.047499999404 0.0087513897998 -0.05 0.012498801457 -0.05
          0.012498801457 -0.047499999404 0.011251372825 -0.05 0.014997782268 -0.05
          0.014997782268 -0.047499999404 0.013750477467 -0.05 0.017499936886 -0.05
          0.017499936886 -0.047499999404 0.016252659779 -0.05 0.020018153774 -0.05
          0.020018153774 -0.047499999404 0.018765109279 -0.05 0.022345355405 -0.05
          0.022345355405 -0.047499999404 0.021127292393 -0.05 0.023746841894 -0.05
          0.023746841894 -0.047499999404 0.022837611021 -0.05
        </DataArray>
        <DataArray type="Float64" Name="pressure" format="ascii" RangeMin="0" RangeMax="663.187169">
          627.07438366 628.25785033 628.25785033 627.07438366 0 0
          0 0 631.66726803 631.66726803 0 0
          0 635.18764678 635.18764678 0 0 0
          638.61333246 638.61333246 0 0 0 642.12712537
          642.12712537 0 0 0 644.60703061 644.60703061
          0 0 0 651.2238331 651.2238331 0
          0 0 663.187169 663.187169 0 0
          0 521.27480159 521.27480159 0 0 0
          0 0 0 0 0 628.25785033
          627.07438366 0 0 0 631.66726803 0
          0 635.18764678 0 0 638.61333246 0
          0 642.12712537 0 0 644.60703061 0
          0 651.2238331 0 0 663.187169 0
          0 521.27480159 0 0 0 0
          0 628.25785033 627.07438366 0 0 0
          631.66726803 0 0 635.18764678 0 0
          638.61333246 0 0 642.12712537 0 0
          644.60703061 0 0 651.2238331 0 0
          663.187169 0 0 521.27480159 0 0
          0 0 0 628.25785033 627.07438366 0
          0 0 631.66726803 0 0 635.18764678
          0 0 638.61333246 0 0 642.12712537
          0 0 644.60703061 0 0 651.2238331
          0 0 663.187169 0 0 521.27480159
          0 0 0 0 0 628.25785033
          627.07438366 0 0 0 631.66726803 0
          0 635.18764678 0 0 638.61333246 0
          0 642.12712537 0 0 644.60703061 0
          0 651.2238331 0 0 663.187169 0
          0 521.27480159 0 0 0 0
          0 628.25785033 627.07438366 0 0 0
          631.66726803 0 0 635.18764678 0 0
          638.61333246 0 0 642.12712537 0 0
          644.60703061 0 0 651.2238331 0 0
          663.187169 0 0 521.27480159 0 0
          0 0 0 628.25785033 627.07438366 0
          0 0 631.66726803 0 0 635.18764678
          0 0 638.61333246 0 0 642.12712537
          0 0 644.60703061 0 0 651.2238331
          0 0 663.187169 0 0 521.27480159
          0 0 0 0 0 628.25785033
          627.07438366 0 0 0 631.66726803 0
          0 635.18764678 0 0 638.61333246 0
          0 642.12712537 0 0 644.60703061 0
          0 651.2238331 0 0 663.187169 0
          0 521.27480159 0 0 0 0
          0 628.25785033 627.07438366 0 0 0
          631.66726803 0 0 635.18764678 0 0
          638.61333246 0 0 642.12712537 0 0
          644.60703061 0 0 651.2238331 0 0
          663.187169 0 0 521.27480159 0 0
          0 0 0 628.25785033 627.07438366 0
          0 0 631.66726803 0 0 635.18764678
          0 0 638.61333246 0 0 642.12712537
          0 0 644.60703061 0 0 651.2238331
          0 0 663.187169 0 0 521.27480159
          0 0 0 0 0
        </DataArray>
      </PointData>
      <CellData>
      </CellData>
      <Points>
        <DataArray type="Float64" Name="Points" NumberOfComponents="3" format="ascii" RangeMin="0" RangeMax="1.4142135624">
          0 0 0 0.10000000149 -2.2204460823e-17 1.2246468526e-17
          0.10000000149 0.10000000149 1.2246468526e-17 2.2204460823e-17 0.10000000149 0
          0.050000000745 -1.1102230412e-17 6.1232342629e-18 0.10000000149 0.050000000745 1.2246468526e-17
          0.050000000745 0.10000000149 6.1232342629e-18 1.1102230412e-17 0.050000000745 0
          0.20000000298 -4.4408921647e-17 2.4492937052e-17 0.20000000298 0.10000000149 2.4492937052e-17
          0.15000000596 -3.3306692062e-17 1.8369702789e-17 0.20000000298 0.050000000745 2.4492937052e-17
          0.15000000596 0.10000000149 1.8369702789e-17 0.30000001192 -6.6613384124e-17 3.6739405578e-17
          0.30000001192 0.10000000149 3.6739405578e-17 0.25 -5.5511151231e-17 3.0616171315e-17
          0.30000001192 0.050000000745 3.6739405578e-17 0.25 0.10000000149 3.0616171315e-17
          0.40000000596 -8.8817843294e-17 4.8985874103e-17 0.40000000596 0.10000000149 4.8985874103e-17
          0.34999999404 -7.77156104e-17 4.2862636532e-17 0.40000000596 0.050000000745 4.8985874103e-17
          0.34999999404 0.10000000149 4.2862636532e-17 0.5 -1.1102230246e-16 6.1232342629e-17
          0.5 0.10000000149 6.1232342629e-17 0.44999998808 -9.9920069569e-17 5.5109105058e-17
          0.5 0.050000000745 6.1232342629e-17 0.44999998808 0.10000000149 5.5109105058e-17
          0.60000002384 -1.3322676825e-16 7.3478811155e-17 0.60000002384 0.10000000149 7.3478811155e-17
          0.55000001192 -1.2212453536e-16 6.7355576892e-17 0.60000002384 0.050000000745 7.3478811155e-17
          0.55000001192 0.10000000149 6.7355576892e-17 0.69999998808 -1.554312208e-16 8.5725273064e-17
          0.69999998808 0.10000000149 8.5725273064e-17 0.64999997616 -1.4432898791e-16 7.9602038801e-17
          0.69999998808 0.050000000745 8.5725273064e-17 0.64999997616 0.10000000149 7.9602038801e-17
          0.80000001192 -1.7763568659e-16 9.7971748207e-17 0.80000001192 0.10000000149 9.7971748207e-17
          0.75 -1.6653345369e-16 9.1848507326e-17 0.80000001192 0.050000000745 9.7971748207e-17
          0.75 0.10000000149 9.1848507326e-17 0.89999997616 -1.9984013914e-16 1.1021821012e-16
          0.89999997616 0.10000000149 1.1021821012e-16 0.85000002384 -1.8873791948e-16 1.0409498247e-16
          0.89999997616 0.050000000745 1.1021821012e-16 0.85000002384 0.10000000149 1.0409498247e-16
          1 -2.2204460493e-16 1.2246468526e-16 1 0.10000000149 1.2246468526e-16
          0.94999998808 -2.1094237203e-16 1.1634144438e-16 1 0.050000000745 1.2246468526e-16
          0.94999998808 0.10000000149 1.1634144438e-16 0.10000000149 0.20000000298 1.2246468526e-17
          4.4408921647e-17 0.20000000298 0 0.10000000149 0.15000000596 1.2246468526e-17
          0.050000000745 0.20000000298 6.1232342629e-18 3.3306692062e-17 0.15000000596 0
          0.20000000298 0.20000000298 2.4492937052e-17 0.20000000298 0.15000000596 2.4492937052e-17
          0.15000000596 0.20000000298 1.8369702789e-17 0.30000001192 0.20000000298 3.6739405578e-17
          0.30000001192 0.15000000596 3.6739405578e-17 0.25 0.20000000298 3.0616171315e-17
          0.40000000596 0.20000000298 4.8985874103e-17 0.40000000596 0.15000000596 4.8985874103e-17
          0.34999999404 0.20000000298 4.2862636532e-17 0.5 0.20000000298 6.1232342629e-17
          0.5 0.15000000596 6.1232342629e-17 0.44999998808 0.20000000298 5.5109105058e-17
          0.60000002384 0.20000000298 7.3478811155e-17 0.60000002384 0.15000000596 7.3478811155e-17
          0.55000001192 0.20000000298 6.7355576892e-17 0.69999998808 0.20000000298 8.5725273064e-17
          0.69999998808 0.15000000596 8.5725273064e-17 0.64999997616 0.20000000298 7.9602038801e-17
          0.80000001192 0.20000000298 9.7971748207e-17 0.80000001192 0.15000000596 9.7971748207e-17
          0.75 0.20000000298 9.1848507326e-17 0.89999997616 0.20000000298 1.1021821012e-16
          0.89999997616 0.15000000596 1.1021821012e-16 0.85000002384 0.20000000298 1.0409498247e-16
          1 0.20000000298 1.2246468526e-16 1 0.15000000596 1.2246468526e-16
          0.94999998808 0.20000000298 1.1634144438e-16 0.10000000149 0.30000001192 1.2246468526e-17
          6.6613384124e-17 0.30000001192 0 0.10000000149 0.25 1.2246468526e-17
          0.050000000745 0.30000001192 6.1232342629e-18 5.5511151231e-17 0.25 0
          0.20000000298 0.30000001192 2.4492937052e-17 0.20000000298 0.25 2.4492937052e-17
          0.15000000596 0.30000001192 1.8369702789e-17 0.30000001192 0.30000001192 3.6739405578e-17
          0.30000001192 0.25 3.6739405578e-17 0.25 0.30000001192 3.0616171315e-17
          0.40000000596 0.30000001192 4.8985874103e-17 0.40000000596 0.25 4.8985874103e-17
          0.34999999404 0.30000001192 4.2862636532e-17 0.5 0.30000001192 6.1232342629e-17
          0.5 0.25 6.1232342629e-17 0.44999998808 0.30000001192 5.5109105058e-17
          0.60000002384 0.30000001192 7.3478811155e-17 0.60000002384 0.25 7.3478811155e-17
          0.55000001192 0.30000001192 6.7355576892e-17 0.69999998808 0.30000001192 8.5725273064e-17
          0.69999998808 0.25 8.5725273064e-17 0.64999997616 0.30000001192 7.9602038801e-17
          0.80000001192 0.30000001192 9.7971748207e-17 0.80000001192 0.25 9.7971748207e-17
          0.75 0.30000001192 9.1848507326e-17 0.89999997616 0.30000001192 1.1021821012e-16
          0.89999997616 0.25 1.1021821012e-16 0.85000002384 0.30000001192 1.0409498247e-16
          1 0.30000001192 1.2246468526e-16 1 0.25 1.2246468526e-16
          0.94999998808 0.30000001192 1.1634144438e-16 0.10000000149 0.40000000596 1.2246468526e-17
          8.8817843294e-17 0.40000000596 0 0.10000000149 0.34999999404 1.2246468526e-17
          0.050000000745 0.40000000596 6.1232342629e-18 7.77156104e-17 0.34999999404 0
          0.20000000298 0.40000000596 2.4492937052e-17 0.20000000298 0.34999999404 2.4492937052e-17
          0.15000000596 0.40000000596 1.8369702789e-17 0.30000001192 0.40000000596 3.6739405578e-17
          0.30000001192 0.34999999404 3.6739405578e-17 0.25 0.40000000596 3.0616171315e-17
          0.40000000596 0.40000000596 4.8985874103e-17 0.40000000596 0.34999999404 4.8985874103e-17
          0.34999999404 0.40000000596 4.2862636532e-17 0.5 0.40000000596 6.1232342629e-17
          0.5 0.34999999404 6.1232342629e-17 0.44999998808 0.40000000596 5.5109105058e-17
          0.60000002384 0.40000000596 7.3478811155e-17 0.60000002384 0.34999999404 7.3478811155e-17
          0.55000001192 0.40000000596 6.7355576892e-17 0.69999998808 0.40000000596 8.5725273064e-17
          0.69999998808 0.34999999404 8.5725273064e-17 0.64999997616 0.40000000596 7.9602038801e-17
          0.80000001192 0.40000000596 9.7971748207e-17 0.80000001192 0.34999999404 9.7971748207e-17
          0.75 0.40000000596 9.1848507326e-17 0.89999997616 0.40000000596 1.1021821012e-16
          0.89999997616 0.34999999404 1.1021821012e-16 0.85000002384 0.40000000596 1.0409498247e-16
          1 0.40000000596 1.2246468526e-16 1 0.34999999404 1.2246468526e-16
          0.94999998808 0.40000000596 1.1634144438e-16 0.10000000149 0.5 1.2246468526e-17
          1.1102230246e-16 0.5 0 0.10000000149 0.44999998808 1.2246468526e-17
          0.050000000745 0.5 6.1232342629e-18 9.9920069569e-17 0.44999998808 0
          0.20000000298 0.5 2.4492937052e-17 0.20000000298 0.44999998808 2.4492937052e-17
          0.15000000596 0.5 1.8369702789e-17 0.30000001192 0.5 3.6739405578e-17
          0.30000001192 0.44999998808 3.6739405578e-17 0.25 0.5 3.0616171315e-17
          0.40000000596 0.5 4.8985874103e-17 0.40000000596 0.44999998808 4.8985874103e-17
          0.34999999404 0.5 4.2862636532e-17 0.5 0.5 6.1232342629e-17
          0.5 0.44999998808 6.1232342629e-17 0.44999998808 0.5 5.5109105058e-17
          0.60000002384 0.5 7.3478811155e-17 0.60000002384 0.44999998808 7.3478811155e-17
          0.55000001192 0.5 6.7355576892e-17 0.69999998808 0.5 8.5725273064e-17
          0.69999998808 0.44999998808 8.5725273064e-17 0.64999997616 0.5 7.9602038801e-17
          0.80000001192 0.5 9.7971748207e-17 0.80000001192 0.44999998808 9.7971748207e-17
          0.75 0.5 9.1848507326e-17 0.89999997616 0.5 1.1021821012e-16
          0.89999997616 0.44999998808 1.1021821012e-16 0.85000002384 0.5 1.0409498247e-16
          1 0.5 1.2246468526e-16 1 0.44999998808 1.2246468526e-16
          0.94999998808 0.5 1.1634144438e-16 0.10000000149 0.60000002384 1.2246468526e-17
          1.3322676825e-16 0.60000002384 0 0.10000000149 0.55000001192 1.2246468526e-17
          0.050000000745 0.60000002384 6.1232342629e-18 1.2212453536e-16 0.55000001192 0
          0.20000000298 0.60000002384 2.4492937052e-17 0.20000000298 0.55000001192 2.4492937052e-17
          0.15000000596 0.60000002384 1.8369702789e-17 0.30000001192 0.60000002384 3.6739405578e-17
          0.30000001192 0.55000001192 3.6739405578e-17 0.25 0.60000002384 3.0616171315e-17
          0.40000000596 0.60000002384 4.8985874103e-17 0.40000000596 0.55000001192 4.8985874103e-17
          0.34999999404 0.60000002384 4.2862636532e-17 0.5 0.60000002384 6.1232342629e-17
          0.5 0.55000001192 6.1232342629e-17 0.44999998808 0.60000002384 5.5109105058e-17
          0.60000002384 0.60000002384 7.3478811155e-17 0.60000002384 0.55000001192 7.3478811155e-17
          0.55000001192 0.60000002384 6.7355576892e-17 0.69999998808 0.60000002384 8.5725273064e-17
          0.69999998808 0.55000001192 8.5725273064e-17 0.64999997616 0.60000002384 7.9602038801e-17
          0.80000001192 0.60000002384 9.7971748207e-17 0.80000001192 0.55000001192 9.7971748207e-17
          0.75 0.60000002384 9.1848507326e-17 0.89999997616 0.60000002384 1.1021821012e-16
          0.89999997616 0.55000001192 1.1021821012e-16 0.85000002384 0.60000002384 1.0409498247e-16
          1 0.60000002384 1.2246468526e-16 1 0.55000001192 1.2246468526e-16
          0.94999998808 0.60000002384 1.1634144438e-16 0.10000000149 0.69999998808 1.2246468526e-17
          1.554312208e-16 0.69999998808 0 0.10000000149 0.64999997616 1.2246468526e-17
          0.050000000745 0.69999998808 6.1232342629e-18 1.4432898791e-16 0.64999997616 0
          0.20000000298 0.69999998808 2.4492937052e-17 0.20000000298 0.64999997616 2.4492937052e-17