<VTKFile type="UnstructuredGrid" version="0.1" byte_order="LittleEndian">
  <UnstructuredGrid>
    <Piece NumberOfPoints="341" NumberOfCells="100">
      <PointData>
       <DataArray type="Float64" Name="displacement_ana" NumberOfComponents="2" format="ascii" RangeMin="0" RangeMax="0.051000627201">
0	0
0.0010023685	0
0.0010023685	-0.005
2.22568576755068E-19	-0.005
0.0005011888	0
0.0010023685	-0.0025
0.0005011888	-0.005
1.11284288377534E-19	-0.0025
0.0020046649	0
0.0020046649	-0.005
0.0015035301	0
0.0020046649	-0.0025
0.0015035301	-0.005
0.0030068197	0
0.0030068197	-0.005
0.0025057642	0
0.0030068197	-0.0025
0.0025057642	-0.005
0.004008768	0
0.004008768	-0.005
0.0035078235	0
0.004008768	-0.0025
0.0035078235	-0.005
0.005010452	0
0.005010452	-0.005
0.0045096464	0
0.005010452	-0.0025
0.0045096464	-0.005
0.0060118228	0
0.0060118228	-0.005
0.0055111792	0
0.0060118228	-0.0025
0.0055111792	-0.005
0.0070128418	0
0.0070128418	-0.005
0.0065123782	0
0.0070128418	-0.0025
0.0065123782	-0.005
0.0080134824	0
0.0080134824	-0.005
0.0075132106	0
0.0080134824	-0.0025
0.0075132106	-0.005
0.0090137305	0
0.0090137305	-0.005
0.0085136559	0
0.0090137305	-0.0025
0.0085136559	-0.005
0.0100135848	0
0.0100135848	-0.005
0.0095137064	0
0.0100135848	-0.0025
0.0095137064	-0.005
0.0010023685	-0.01
4.4514717731561E-19	-0.01
0.0010023685	-0.0075
0.0005011888	-0.01
3.33862888938076E-19	-0.0075
0.0020046649	-0.01
0.0020046649	-0.0075
0.0015035301	-0.01
0.0030068197	-0.01
0.0030068197	-0.0075
0.0025057642	-0.01
0.004008768	-0.01
0.004008768	-0.0075
0.0035078235	-0.01
0.005010452	-0.01
0.005010452	-0.0075
0.0045096464	-0.01
0.0060118228	-0.01
0.0060118228	-0.0075
0.0055111792	-0.01
0.0070128418	-0.01
0.0070128418	-0.0075
0.0065123782	-0.01
0.0080134824	-0.01
0.0080134824	-0.0075
0.0075132106	-0.01
0.0090137305	-0.01
0.0090137305	-0.0075
0.0085136559	-0.01
0.0100135848	-0.01
0.0100135848	-0.0075
0.0095137064	-0.01
0.0010023685	-0.015
6.67715754070678E-19	-0.015
0.0010023685	-0.0125
0.0005011888	-0.015
5.56431465693144E-19	-0.0125
0.0020046649	-0.015
0.0020046649	-0.0125
0.0015035301	-0.015
0.0030068197	-0.015
0.0030068197	-0.0125
0.0025057642	-0.015
0.004008768	-0.015
0.004008768	-0.0125
0.0035078235	-0.015
0.005010452	-0.015
0.005010452	-0.0125
0.0045096464	-0.015
0.0060118228	-0.015
0.0060118228	-0.0125
0.0055111792	-0.015
0.0070128418	-0.015
0.0070128418	-0.0125
0.0065123782	-0.015
0.0080134824	-0.015
0.0080134824	-0.0125
0.0075132106	-0.015
0.0090137305	-0.015
0.0090137305	-0.0125
0.0085136559	-0.015
0.0100135848	-0.015
0.0100135848	-0.0125
0.0095137064	-0.015
0.0010023685	-0.02
8.9029435463122E-19	-0.02
0.0010023685	-0.0175
0.0005011888	-0.02
7.79010066253686E-19	-0.0175
0.0020046649	-0.02
0.0020046649	-0.0175
0.0015035301	-0.02
0.0030068197	-0.02
0.0030068197	-0.0175
0.0025057642	-0.02
0.004008768	-0.02
0.004008768	-0.0175
0.0035078235	-0.02
0.005010452	-0.02
0.005010452	-0.0175
0.0045096464	-0.02
0.0060118228	-0.02
0.0060118228	-0.0175
0.0055111792	-0.02
0.0070128418	-0.02
0.0070128418	-0.0175
0.0065123782	-0.02
0.0080134824	-0.02
0.0080134824	-0.0175
0.0075132106	-0.02
0.0090137305	-0.02
0.0090137305	-0.0175
0.0085136559	-0.02
0.0100135848	-0.02
0.0100135848	-0.0175
0.0095137064	-0.02
0.0010023685	-0.025
1.11284288377534E-18	-0.025
0.0010023685	-0.0225
0.0005011888	-0.025
1.00157864300875E-18	-0.0225
0.0020046649	-0.025
0.0020046649	-0.0225
0.0015035301	-0.025
0.0030068197	-0.025
0.0030068197	-0.0225
0.0025057642	-0.025
0.004008768	-0.025
0.004008768	-0.0225
0.0035078235	-0.025
0.005010452	-0.025
0.005010452	-0.0225
0.0045096464	-0.025
0.0060118228	-0.025
0.0060118228	-0.0225
0.0055111792	-0.025
0.0070128418	-0.025
0.0070128418	-0.0225
0.0065123782	-0.025
0.0080134824	-0.025
0.0080134824	-0.0225
0.0075132106	-0.025
0.0090137305	-0.025
0.0090137305	-0.0225
0.0085136559	-0.025
0.0100135848	-0.025
0.0100135848	-0.0225
0.0095137064	-0.025
0.0010023685	-0.03
1.33547160336325E-18	-0.03
0.0010023685	-0.0275
0.0005011888	-0.03
1.22410712454192E-18	-0.0275
0.0020046649	-0.03
0.0020046649	-0.0275
0.0015035301	-0.03
0.0030068197	-0.03
0.0030068197	-0.0275
0.0025057642	-0.03
0.004008768	-0.03
0.004008768	-0.0275
0.0035078235	-0.03
0.005010452	-0.03
0.005010452	-0.0275
0.0045096464	-0.03
0.0060118228	-0.03
0.0060118228	-0.0275
0.0055111792	-0.03
0.0070128418	-0.03
0.0070128418	-0.0275
0.0065123782	-0.03
0.0080134824	-0.03
0.0080134824	-0.0275
0.0075132106	-0.03
0.0090137305	-0.03
0.0090137305	-0.0275
0.0085136559	-0.03
0.0100135848	-0.03
0.0100135848	-0.0275
0.0095137064	-0.03
0.0010023685	-0.035
1.55800008489642E-18	-0.035
0.0010023685	-0.0325
0.0005011888	-0.035
1.44673584412984E-18	-0.0325
0.0020046649	-0.035
0.0020046649	-0.0325
0.0015035301	-0.035
0.0030068197	-0.035
0.0030068197	-0.0325
0.0025057642	-0.035
0.004008768	-0.035
0.004008768	-0.0325
0.0035078235	-0.035
0.005010452	-0.035
0.005010452	-0.0325
0.0045096464	-0.035
0.0060118228	-0.035
0.0060118228	-0.0325
0.0055111792	-0.035
0.0070128418	-0.035
0.0070128418	-0.0325
0.0065123782	-0.035
0.0080134824	-0.035
0.0080134824	-0.0325
0.0075132106	-0.035
0.0090137305	-0.035
0.0090137305	-0.0325
0.0085136559	-0.035
0.0100135848	-0.035
0.0100135848	-0.0325
0.0095137064	-0.035
0.0010023685	-0.04
1.78062880448434E-18	-0.04
0.0010023685	-0.0375
0.0005011888	-0.04
1.66926432566301E-18	-0.0375
0.0020046649	-0.04
0.0020046649	-0.0375
0.0015035301	-0.04
0.0030068197	-0.04
0.0030068197	-0.0375
0.0025057642	-0.04
0.004008768	-0.04
0.004008768	-0.0375
0.0035078235	-0.04
0.005010452	-0.04
0.005010452	-0.0375
0.0045096464	-0.04
0.0060118228	-0.04
0.0060118228	-0.0375
0.0055111792	-0.04
0.0070128418	-0.04
0.0070128418	-0.0375
0.0065123782	-0.04
0.0080134824	-0.04
0.0080134824	-0.0375
0.0075132106	-0.04
0.0090137305	-0.04
0.0090137305	-0.0375
0.0085136559	-0.04
0.0100135848	-0.04
0.0100135848	-0.0375
0.0095137064	-0.04
0.0010023685	-0.045
2.00315728601751E-18	-0.045
0.0010023685	-0.0425
0.0005011888	-0.045
1.89189304525092E-18	-0.0425
0.0020046649	-0.045
0.0020046649	-0.0425
0.0015035301	-0.045
0.0030068197	-0.045
0.0030068197	-0.0425
0.0025057642	-0.045
0.004008768	-0.045
0.004008768	-0.0425
0.0035078235	-0.045
0.005010452	-0.045
0.005010452	-0.0425
0.0045096464	-0.045
0.0060118228	-0.045
0.0060118228	-0.0425
0.0055111792	-0.045
0.0070128418	-0.045
0.0070128418	-0.0425
0.0065123782	-0.045
0.0080134824	-0.045
0.0080134824	-0.0425
0.0075132106	-0.045
0.0090137305	-0.045
0.0090137305	-0.0425
0.0085136559	-0.045
0.0100135848	-0.045
0.0100135848	-0.0425
0.0095137064	-0.045
0.0010023685	-0.05
2.22568576755068E-18	-0.05
0.0010023685	-0.0475
0.0005011888	-0.05
2.11442152678409E-18	-0.0475
0.0020046649	-0.05
0.0020046649	-0.0475
0.0015035301	-0.05
0.0030068197	-0.05
0.0030068197	-0.0475
0.0025057642	-0.05
0.004008768	-0.05
0.004008768	-0.0475
0.0035078235	-0.05
0.005010452	-0.05
0.005010452	-0.0475
0.0045096464	-0.05
0.0060118228	-0.05
0.0060118228	-0.0475
0.0055111792	-0.05
0.0070128418	-0.05
0.0070128418	-0.0475
0.0065123782	-0.05
0.0080134824	-0.05
0.0080134824	-0.0475
0.0075132106	-0.05
0.0090137305	-0.05
0.0090137305	-0.0475
0.0085136559	-0.05
0.0100135848	-0.05
0.0100135848	-0.0475
0.0095137064	-0.05
        </DataArray>
        <DataArray type="Float64" Name="displacement" NumberOfComponents="2" format="ascii" RangeMin="0" RangeMax="0.051000627201">
          0 0 0.0010099965295 0 0.0010099965295 -0.0050000000745
          0 -0.0050000000745 0.00050506958795 0 0.0010099965295 -0.0025000000373
          0.00050506958795 -0.0050000000745 0 -0.0025000000373 0.0020192267282 0
          0.0020192267282 -0.0050000000745 0.0015145921203 0 0.0020192267282 -0.0025000000373
          0.0015145921203 -0.0050000000745 0.0030276155463 0 0.0030276155463 -0.0050000000745
          0.0025233411681 0 0.0030276155463 -0.0025000000373 0.0025233411681 -0.0050000000745
          0.0040350353634 0 0.0040350353634 -0.0050000000745 0.0035311922164 0
          0.0040350353634 -0.0025000000373 0.0035311922164 -0.0050000000745 0.0050413583826 0
          0.0050413583826 -0.0050000000745 0.0045380157686 0 0.0050413583826 -0.0025000000373
          0.0045380157686 -0.0050000000745 0.0060464676959 0 0.0060464676959 -0.0050000000745
          0.0055436891915 0 0.0060464676959 -0.0025000000373 0.0055436891915 -0.0050000000745
          0.007050261538 0 0.007050261538 -0.0050000000745 0.0065481025774 0
          0.007050261538 -0.0025000000373 0.0065481025774 -0.0050000000745 0.0080526600952 0
          0.0080526600952 -0.0050000000745 0.0075511663227 0 0.0080526600952 -0.0025000000373
          0.0075511663227 -0.0050000000745 0.0090536034416 0 0.0090536034416 -0.0050000000745
          0.0085528101158 0 0.0090536034416 -0.0025000000373 0.0085528101158 -0.0050000000745
          0.010053057989 0 0.010053057989 -0.0050000000745 0.0095529867331 0
          0.010053057989 -0.0025000000373 0.0095529867331 -0.0050000000745 0.0010099965295 -0.010000000149
          0 -0.010000000149 0.0010099965295 -0.007500000298 0.00050506958795 -0.010000000149
          0 -0.007500000298 0.0020192267282 -0.010000000149 0.0020192267282 -0.007500000298
          0.0015145921203 -0.010000000149 0.0030276155463 -0.010000000149 0.0030276155463 -0.007500000298
          0.0025233411681 -0.010000000149 0.0040350353634 -0.010000000149 0.0040350353634 -0.007500000298
          0.0035311922164 -0.010000000149 0.0050413583826 -0.010000000149 0.0050413583826 -0.007500000298
          0.0045380157686 -0.010000000149 0.0060464676959 -0.010000000149 0.0060464676959 -0.007500000298
          0.0055436891915 -0.010000000149 0.007050261538 -0.010000000149 0.007050261538 -0.007500000298
          0.0065481025774 -0.010000000149 0.0080526600952 -0.010000000149 0.0080526600952 -0.007500000298
          0.0075511663227 -0.010000000149 0.0090536034416 -0.010000000149 0.0090536034416 -0.007500000298
          0.0085528101158 -0.010000000149 0.010053057989 -0.010000000149 0.010053057989 -0.007500000298
          0.0095529867331 -0.010000000149 0.0010099965295 -0.015000000596 0 -0.015000000596
          0.0010099965295 -0.0125 0.00050506958795 -0.015000000596 0 -0.0125
          0.0020192267282 -0.015000000596 0.0020192267282 -0.0125 0.0015145921203 -0.015000000596
          0.0030276155463 -0.015000000596 0.0030276155463 -0.0125 0.0025233411681 -0.015000000596
          0.0040350353634 -0.015000000596 0.0040350353634 -0.0125 0.0035311922164 -0.015000000596
          0.0050413583826 -0.015000000596 0.0050413583826 -0.0125 0.0045380157686 -0.015000000596
          0.0060464676959 -0.015000000596 0.0060464676959 -0.0125 0.0055436891915 -0.015000000596
          0.007050261538 -0.015000000596 0.007050261538 -0.0125 0.0065481025774 -0.015000000596
          0.0080526600952 -0.015000000596 0.0080526600952 -0.0125 0.0075511663227 -0.015000000596
          0.0090536034416 -0.015000000596 0.0090536034416 -0.0125 0.0085528101158 -0.015000000596
          0.010053057989 -0.015000000596 0.010053057989 -0.0125 0.0095529867331 -0.015000000596
          0.0010099965295 -0.020000000298 0 -0.020000000298 0.0010099965295 -0.017499999702
          0.00050506958795 -0.020000000298 0 -0.017499999702 0.0020192267282 -0.020000000298
          0.0020192267282 -0.017499999702 0.0015145921203 -0.020000000298 0.0030276155463 -0.020000000298
          0.0030276155463 -0.017499999702 0.0025233411681 -0.020000000298 0.0040350353634 -0.020000000298
          0.0040350353634 -0.017499999702 0.0035311922164 -0.020000000298 0.0050413583826 -0.020000000298
          0.0050413583826 -0.017499999702 0.0045380157686 -0.020000000298 0.0060464676959 -0.020000000298
          0.0060464676959 -0.017499999702 0.0055436891915 -0.020000000298 0.007050261538 -0.020000000298
          0.007050261538 -0.017499999702 0.0065481025774 -0.020000000298 0.0080526600952 -0.020000000298
          0.0080526600952 -0.017499999702 0.0075511663227 -0.020000000298 0.0090536034416 -0.020000000298
          0.0090536034416 -0.017499999702 0.0085528101158 -0.020000000298 0.010053057989 -0.020000000298
          0.010053057989 -0.017499999702 0.0095529867331 -0.020000000298 0.0010099965295 -0.025
          0 -0.025 0.0010099965295 -0.022499999404 0.00050506958795 -0.025
          0 -0.022499999404 0.0020192267282 -0.025 0.0020192267282 -0.022499999404
          0.0015145921203 -0.025 0.0030276155463 -0.025 0.0030276155463 -0.022499999404
          0.0025233411681 -0.025 0.0040350353634 -0.025 0.0040350353634 -0.022499999404
          0.0035311922164 -0.025 0.0050413583826 -0.025 0.0050413583826 -0.022499999404
          0.0045380157686 -0.025 0.0060464676959 -0.025 0.0060464676959 -0.022499999404
          0.0055436891915 -0.025 0.007050261538 -0.025 0.007050261538 -0.022499999404
          0.0065481025774 -0.025 0.0080526600952 -0.025 0.0080526600952 -0.022499999404
          0.0075511663227 -0.025 0.0090536034416 -0.025 0.0090536034416 -0.022499999404
          0.0085528101158 -0.025 0.010053057989 -0.025 0.010053057989 -0.022499999404
          0.0095529867331 -0.025 0.0010099965295 -0.030000001192 0 -0.030000001192
          0.0010099965295 -0.027500000596 0.00050506958795 -0.030000001192 0 -0.027500000596
          0.0020192267282 -0.030000001192 0.0020192267282 -0.027500000596 0.0015145921203 -0.030000001192
          0.0030276155463 -0.030000001192 0.0030276155463 -0.027500000596 0.0025233411681 -0.030000001192
          0.0040350353634 -0.030000001192 0.0040350353634 -0.027500000596 0.0035311922164 -0.030000001192
          0.0050413583826 -0.030000001192 0.0050413583826 -0.027500000596 0.0045380157686 -0.030000001192
          0.0060464676959 -0.030000001192 0.0060464676959 -0.027500000596 0.0055436891915 -0.030000001192
          0.007050261538 -0.030000001192 0.007050261538 -0.027500000596 0.0065481025774 -0.030000001192
          0.0080526600952 -0.030000001192 0.0080526600952 -0.027500000596 0.0075511663227 -0.030000001192
          0.0090536034416 -0.030000001192 0.0090536034416 -0.027500000596 0.0085528101158 -0.030000001192
          0.010053057989 -0.030000001192 0.010053057989 -0.027500000596 0.0095529867331 -0.030000001192
          0.0010099965295 -0.034999999404 0 -0.034999999404 0.0010099965295 -0.032499998808
          0.00050506958795 -0.034999999404 0 -0.032499998808 0.0020192267282 -0.034999999404
          0.0020192267282 -0.032499998808 0.0015145921203 -0.034999999404 0.0030276155463 -0.034999999404
          0.0030276155463 -0.032499998808 0.0025233411681 -0.034999999404 0.0040350353634 -0.034999999404
          0.0040350353634 -0.032499998808 0.0035311922164 -0.034999999404 0.0050413583826 -0.034999999404
          0.0050413583826 -0.032499998808 0.0045380157686 -0.034999999404 0.0060464676959 -0.034999999404
          0.0060464676959 -0.032499998808 0.0055436891915 -0.034999999404 0.007050261538 -0.034999999404
          0.007050261538 -0.032499998808 0.0065481025774 -0.034999999404 0.0080526600952 -0.034999999404
          0.0080526600952 -0.032499998808 0.0075511663227 -0.034999999404 0.0090536034416 -0.034999999404
          0.0090536034416 -0.032499998808 0.0085528101158 -0.034999999404 0.010053057989 -0.034999999404
          0.010053057989 -0.032499998808 0.0095529867331 -0.034999999404 0.0010099965295 -0.040000000596
          0 -0.040000000596 0.0010099965295 -0.0375 0.00050506958795 -0.040000000596
          0 -0.0375 0.0020192267282 -0.040000000596 0.0020192267282 -0.0375
          0.0015145921203 -0.040000000596 0.0030276155463 -0.040000000596 0.0030276155463 -0.0375
          0.0025233411681 -0.040000000596 0.0040350353634 -0.040000000596 0.0040350353634 -0.0375
          0.0035311922164 -0.040000000596 0.0050413583826 -0.040000000596 0.0050413583826 -0.0375
          0.0045380157686 -0.040000000596 0.0060464676959 -0.040000000596 0.0060464676959 -0.0375
          0.0055436891915 -0.040000000596 0.007050261538 -0.040000000596 0.007050261538 -0.0375
          0.0065481025774 -0.040000000596 0.0080526600952 -0.040000000596 0.0080526600952 -0.0375
          0.0075511663227 -0.040000000596 0.0090536034416 -0.040000000596 0.0090536034416 -0.0375
          0.0085528101158 -0.040000000596 0.010053057989 -0.040000000596 0.010053057989 -0.0375
          0.0095529867331 -0.040000000596 0.0010099965295 -0.044999998808 0 -0.044999998808
          0.0010099965295 -0.042500001192 0.00050506958795 -0.044999998808 0 -0.042500001192
          0.0020192267282 -0.044999998808 0.0020192267282 -0.042500001192 0.0015145921203 -0.044999998808
          0.0030276155463 -0.044999998808 0.0030276155463 -0.042500001192 0.0025233411681 -0.044999998808
          0.0040350353634 -0.044999998808 0.0040350353634 -0.042500001192 0.0035311922164 -0.044999998808
          0.0050413583826 -0.044999998808 0.0050413583826 -0.042500001192 0.0045380157686 -0.044999998808
          0.0060464676959 -0.044999998808 0.0060464676959 -0.042500001192 0.0055436891915 -0.044999998808
          0.007050261538 -0.044999998808 0.007050261538 -0.042500001192 0.0065481025774 -0.044999998808
          0.0080526600952 -0.044999998808 0.0080526600952 -0.042500001192 0.0075511663227 -0.044999998808
          0.0090536034416 -0.044999998808 0.0090536034416 -0.042500001192 0.0085528101158 -0.044999998808
          0.010053057989 -0.044999998808 0.010053057989 -0.042500001192 0.0095529867331 -0.044999998808
          0.0010099965295 -0.05 0 -0.05 0.0010099965295 -0.047499999404
          0.00050506958795 -0.05 0 -0.047499999404 0.0020192267282 -0.05
          0.0020192267282 -0.047499999404 0.0015145921203 -0.05 0.0030276155463 -0.05
          0.0030276155463 -0.047499999404 0.0025233411681 -0.05 0.0040350353634 -0.05
          0.0040350353634 -0.047499999404 0.0035311922164 -0.05 0.0050413583826 -0.05
          0.0050413583826 -0.047499999404 0.0045380157686 -0.05 0.0060464676959 -0.05
          0.0060464676959 -0.047499999404 0.0055436891915 -0.05 0.007050261538 -0.05
          0.007050261538 -0.047499999404 0.0065481025774 -0.05 0.0080526600952 -0.05
          0.0080526600952 -0.047499999404 0.0075511663227 -0.05 0.0090536034416 -0.05
          0.0090536034416 -0.047499999404 0.0085528101158 -0.05 0.010053057989 -0.05
          0.010053057989 -0.047499999404 0.0095529867331 -0.05
        </DataArray>
        <DataArray type="Float64" Name="pressure" format="ascii" RangeMin="0" RangeMax="4.3617784109">
          4.3617784109 4.3078607504 4.3078607504 4.3617784109 0 0
          0 0 4.1481553081 4.1481553081 0 0
          0 3.8891897373 3.8891897373 0 0 0
          3.5380790084 3.5380790084 0 0 0 3.1028136462
          3.1028136462 0 0 0 2.5922590267 2.5922590267
          0 0 0 2.0160817657 2.0160817657 0
          0 0 1.3846370217 1.3846370217 0 0
          0 0.70883725402 0.70883725402 0 0 0
          0 0 0 0 0 4.3078607504
          4.3617784109 0 0 0 4.1481553081 0
          0 3.8891897373 0 0 3.5380790084 0
          0 3.1028136462 0 0 2.5922590267 0
          0 2.0160817657 0 0 1.3846370217 0
          0 0.70883725402 0 0 0 0
          0 4.3078607504 4.3617784109 0 0 0
          4.1481553081 0 0 3.8891897373 0 0
          3.5380790084 0 0 3.1028136462 0 0
          2.5922590267 0 0 2.0160817657 0 0
          1.3846370217 0 0 0.70883725402 0 0
          0 0 0 4.3078607504 4.3617784109 0
          0 0 4.1481553081 0 0 3.8891897373
          0 0 3.5380790084 0 0 3.1028136462
          0 0 2.5922590267 0 0 2.0160817657
          0 0 1.3846370217 0 0 0.70883725402
          0 0 0 0 0 4.3078607504
          4.3617784109 0 0 0 4.1481553081 0
          0 3.8891897373 0 0 3.5380790084 0
          0 3.1028136462 0 0 2.5922590267 0
          0 2.0160817657 0 0 1.3846370217 0
          0 0.70883725402 0 0 0 0
          0 4.3078607504 4.3617784109 0 0 0
          4.1481553081 0 0 3.8891897373 0 0
          3.5380790084 0 0 3.1028136462 0 0
          2.5922590267 0 0 2.0160817657 0 0
          1.3846370217 0 0 0.70883725402 0 0
          0 0 0 4.3078607504 4.3617784109 0
          0 0 4.1481553081 0 0 3.8891897373
          0 0 3.5380790084 0 0 3.1028136462
          0 0 2.5922590267 0 0 2.0160817657
          0 0 1.3846370217 0 0 0.70883725402
          0 0 0 0 0 4.3078607504
          4.3617784109 0 0 0 4.1481553081 0
          0 3.8891897373 0 0 3.5380790084 0
          0 3.1028136462 0 0 2.5922590267 0
          0 2.0160817657 0 0 1.3846370217 0
          0 0.70883725402 0 0 0 0
          0 4.3078607504 4.3617784109 0 0 0
          4.1481553081 0 0 3.8891897373 0 0
          3.5380790084 0 0 3.1028136462 0 0
          2.5922590267 0 0 2.0160817657 0 0
          1.3846370217 0 0 0.70883725402 0 0
          0 0 0 4.3078607504 4.3617784109 0
          0 0 4.1481553081 0 0 3.8891897373
          0 0 3.5380790084 0 0 3.1028136462
          0 0 2.5922590267 0 0 2.0160817657
          0 0 1.3846370217 0 0 0.70883725402
          0 0 0 0 0
        </DataArray>
      </PointData>
      <CellData>
      </CellData>
      <Points>
        <DataArray type="Float64" Name="Points" NumberOfComponents="3" format="ascii" RangeMin="0" RangeMax="1.4142135624">
          0 0 0 0.10000000149 -2.2204460823e-17 1.2246468526e-17
          0.10000000149 0.10000000149 1.2246468526e-17 2.2204460823e-17 0.10000000149 0
          0.050000000745 -1.1102230412e-17 6.1232342629e-18 0.10000000149 0.050000000745 1.2246468526e-17
          0.050000000745 0.10000000149 6.1232342629e-18 1.1102230412e-17 0.050000000745 0
          0.20000000298 -4.4408921647e-17 2.4492937052e-17 0.20000000298 0.10000000149 2.4492937052e-17
          0.15000000596 -3.3306692062e-17 1.8369702789e-17 0.20000000298 0.050000000745 2.4492937052e-17
          0.15000000596 0.10000000149 1.8369702789e-17 0.30000001192 -6.6613384124e-17 3.6739405578e-17
          0.30000001192 0.10000000149 3.6739405578e-17 0.25 -5.5511151231e-17 3.0616171315e-17
          0.30000001192 0.050000000745 3.6739405578e-17 0.25 0.10000000149 3.0616171315e-17
          0.40000000596 -8.8817843294e-17 4.8985874103e-17 0.40000000596 0.10000000149 4.8985874103e-17
          0.34999999404 -7.77156104e-17 4.2862636532e-17 0.40000000596 0.050000000745 4.8985874103e-17
          0.34999999404 0.10000000149 4.2862636532e-17 0.5 -1.1102230246e-16 6.1232342629e-17
          0.5 0.10000000149 6.1232342629e-17 0.44999998808 -9.9920069569e-17 5.5109105058e-17
          0.5 0.050000000745 6.1232342629e-17 0.44999998808 0.10000000149 5.5109105058e-17
          0.60000002384 -1.3322676825e-16 7.3478811155e-17 0.60000002384 0.10000000149 7.3478811155e-17
          0.55000001192 -1.2212453536e-16 6.7355576892e-17 0.60000002384 0.050000000745 7.3478811155e-17
          0.55000001192 0.10000000149 6.7355576892e-17 0.69999998808 -1.554312208e-16 8.5725273064e-17
          0.69999998808 0.10000000149 8.5725273064e-17 0.64999997616 -1.4432898791e-16 7.9602038801e-17
          0.69999998808 0.050000000745 8.5725273064e-17 0.64999997616 0.10000000149 7.9602038801e-17
          0.80000001192 -1.7763568659e-16 9.7971748207e-17 0.80000001192 0.10000000149 9.7971748207e-17
          0.75 -1.6653345369e-16 9.1848507326e-17 0.80000001192 0.050000000745 9.7971748207e-17
          0.75 0.10000000149 9.1848507326e-17 0.89999997616 -1.9984013914e-16 1.1021821012e-16
          0.89999997616 0.10000000149 1.1021821012e-16 0.85000002384 -1.8873791948e-16 1.0409498247e-16
          0.89999997616 0.050000000745 1.1021821012e-16 0.85000002384 0.10000000149 1.0409498247e-16
          1 -2.2204460493e-16 1.2246468526e-16 1 0.10000000149 1.2246468526e-16
          0.94999998808 -2.1094237203e-16 1.1634144438e-16 1 0.050000000745 1.2246468526e-16
          0.94999998808 0.10000000149 1.1634144438e-16 0.10000000149 0.20000000298 1.2246468526e-17
          4.4408921647e-17 0.20000000298 0 0.10000000149 0.15000000596 1.2246468526e-17
          0.050000000745 0.20000000298 6.1232342629e-18 3.3306692062e-17 0.15000000596 0
          0.20000000298 0.20000000298 2.4492937052e-17 0.20000000298 0.15000000596 2.4492937052e-17
          0.15000000596 0.20000000298 1.8369702789e-17 0.30000001192 0.20000000298 3.6739405578e-17
          0.30000001192 0.15000000596 3.6739405578e-17 0.25 0.20000000298 3.0616171315e-17
          0.40000000596 0.20000000298 4.8985874103e-17 0.40000000596 0.15000000596 4.8985874103e-17
          0.34999999404 0.20000000298 4.2862636532e-17 0.5 0.20000000298 6.1232342629e-17
          0.5 0.15000000596 6.1232342629e-17 0.44999998808 0.20000000298 5.5109105058e-17
          0.60000002384 0.20000000298 7.3478811155e-17 0.60000002384 0.15000000596 7.3478811155e-17
          0.55000001192 0.20000000298 6.7355576892e-17 0.69999998808 0.20000000298 8.5725273064e-17
          0.69999998808 0.15000000596 8.5725273064e-17 0.64999997616 0.20000000298 7.9602038801e-17
          0.80000001192 0.20000000298 9.7971748207e-17 0.80000001192 0.15000000596 9.7971748207e-17
          0.75 0.20000000298 9.1848507326e-17 0.89999997616 0.20000000298 1.1021821012e-16
          0.89999997616 0.15000000596 1.1021821012e-16 0.85000002384 0.20000000298 1.0409498247e-16
          1 0.20000000298 1.2246468526e-16 1 0.15000000596 1.2246468526e-16
          0.94999998808 0.20000000298 1.1634144438e-16 0.10000000149 0.30000001192 1.2246468526e-17
          6.6613384124e-17 0.30000001192 0 0.10000000149 0.25 1.2246468526e-17
          0.050000000745 0.30000001192 6.1232342629e-18 5.5511151231e-17 0.25 0
          0.20000000298 0.30000001192 2.4492937052e-17 0.20000000298 0.25 2.4492937052e-17
          0.15000000596 0.30000001192 1.8369702789e-17 0.30000001192 0.30000001192 3.6739405578e-17
          0.30000001192 0.25 3.6739405578e-17 0.25 0.30000001192 3.0616171315e-17
          0.40000000596 0.30000001192 4.8985874103e-17 0.40000000596 0.25 4.8985874103e-17
          0.34999999404 0.30000001192 4.2862636532e-17 0.5 0.30000001192 6.1232342629e-17
          0.5 0.25 6.1232342629e-17 0.44999998808 0.30000001192 5.5109105058e-17
          0.60000002384 0.30000001192 7.3478811155e-17 0.60000002384 0.25 7.3478811155e-17
          0.55000001192 0.30000001192 6.7355576892e-17 0.69999998808 0.30000001192 8.5725273064e-17
          0.69999998808 0.25 8.5725273064e-17 0.64999997616 0.30000001192 7.9602038801e-17
          0.80000001192 0.30000001192 9.7971748207e-17 0.80000001192 0.25 9.7971748207e-17
          0.75 0.30000001192 9.1848507326e-17 0.89999997616 0.30000001192 1.1021821012e-16
          0.89999997616 0.25 1.1021821012e-16 0.85000002384 0.30000001192 1.0409498247e-16
          1 0.30000001192 1.2246468526e-16 1 0.25 1.2246468526e-16
          0.94999998808 0.30000001192 1.1634144438e-16 0.10000000149 0.40000000596 1.2246468526e-17
          8.8817843294e-17 0.40000000596 0 0.10000000149 0.34999999404 1.2246468526e-17
          0.050000000745 0.40000000596 6.1232342629e-18 7.77156104e-17 0.34999999404 0
          0.20000000298 0.40000000596 2.4492937052e-17 0.20000000298 0.34999999404 2.4492937052e-17
          0.15000000596 0.40000000596 1.8369702789e-17 0.30000001192 0.40000000596 3.6739405578e-17
          0.30000001192 0.34999999404 3.6739405578e-17 0.25 0.40000000596 3.0616171315e-17
          0.40000000596 0.40000000596 4.8985874103e-17 0.40000000596 0.34999999404 4.8985874103e-17
          0.34999999404 0.40000000596 4.2862636532e-17 0.5 0.40000000596 6.1232342629e-17
          0.5 0.34999999404 6.1232342629e-17 0.44999998808 0.40000000596 5.5109105058e-17
          0.60000002384 0.40000000596 7.3478811155e-17 0.60000002384 0.34999999404 7.3478811155e-17
          0.55000001192 0.40000000596 6.7355576892e-17 0.69999998808 0.40000000596 8.5725273064e-17
          0.69999998808 0.34999999404 8.5725273064e-17 0.64999997616 0.40000000596 7.9602038801e-17
          0.80000001192 0.40000000596 9.7971748207e-17 0.80000001192 0.34999999404 9.7971748207e-17
          0.75 0.40000000596 9.1848507326e-17 0.89999997616 0.40000000596 1.1021821012e-16
          0.89999997616 0.34999999404 1.1021821012e-16 0.85000002384 0.40000000596 1.0409498247e-16
          1 0.40000000596 1.2246468526e-16 1 0.34999999404 1.2246468526e-16
          0.94999998808 0.40000000596 1.1634144438e-16 0.10000000149 0.5 1.2246468526e-17
          1.1102230246e-16 0.5 0 0.10000000149 0.44999998808 1.2246468526e-17
          0.050000000745 0.5 6.1232342629e-18 9.9920069569e-17 0.44999998808 0
          0.20000000298 0.5 2.4492937052e-17 0.20000000298 0.44999998808 2.4492937052e-17
          0.15000000596 0.5 1.8369702789e-17 0.30000001192 0.5 3.6739405578e-17
          0.30000001192 0.44999998808 3.6739405578e-17 0.25 0.5 3.0616171315e-17
          0.40000000596 0.5 4.8985874103e-17 0.40000000596 0.44999998808 4.8985874103e-17
          0.34999999404 0.5 4.2862636532e-17 0.5 0.5 6.1232342629e-17
          0.5 0.44999998808 6.1232342629e-17 0.44999998808 0.5 5.5109105058e-17
          0.60000002384 0.5 7.3478811155e-17 0.60000002384 0.44999998808 7.3478811155e-17
          0.55000001192 0.5 6.7355576892e-17 0.69999998808 0.5 8.5725273064e-17
          0.69999998808 0.44999998808 8.5725273064e-17 0.64999997616 0.5 7.9602038801e-17
          0.80000001192 0.5 9.7971748207e-17 0.80000001192 0.44999998808 9.7971748207e-17
          0.75 0.5 9.1848507326e-17 0.89999997616 0.5 1.1021821012e-16
          0.89999997616 0.44999998808 1.1021821012e-16 0.85000002384 0.5 1.0409498247e-16
          1 0.5 1.2246468526e-16 1 0.44999998808 1.2246468526e-16
          0.94999998808 0.5 1.1634144438e-16 0.10000000149 0.60000002384 1.2246468526e-17
          1.3322676825e-16 0.60000002384 0 0.10000000149 0.55000001192 1.2246468526e-17
          0.050000000745 0.60000002384 6.1232342629e-18 1.2212453536e-16 0.55000001192 0
          0.20000000298 0.60000002384 2.4492937052e-17 0.20000000298 0.55000001192 2.4492937052e-17
          0.15000000596 0.60000002384 1.8369702789e-17 0.30000001192 0.60000002384 3.6739405578e-17
          0.30000001192 0.55000001192 3.6739405578e-17 0.25 0.60000002384 3.0616171315e-17
          0.40000000596 0.60000002384 4.8985874103e-17 0.40000000596 0.55000001192 4.8985874103e-17