<?xml version="1.0"?>
<!-- Time step: 1198 | Time: 1.000000000000e+003 -->
<VTKFile type="UnstructuredGrid" version="0.1" byte_order="LittleEndian">
  <UnstructuredGrid>
    <Piece NumberOfPoints="100" NumberOfCells="72">
      <Points>
        <DataArray type="Float64" NumberOfComponents="3" format="ascii">
          0.000000000000e+000 0.000000000000e+000 0.000000000000e+000
          1.000000000000e-001 0.000000000000e+000 0.000000000000e+000
          1.000000000000e-001 0.000000000000e+000 1.000000000000e+000
          0.000000000000e+000 0.000000000000e+000 1.000000000000e+000
          3.333333333333e-002 0.000000000000e+000 0.000000000000e+000
          6.666666666666e-002 0.000000000000e+000 0.000000000000e+000
          1.000000000000e-001 0.000000000000e+000 4.166666666667e-002
          1.000000000000e-001 0.000000000000e+000 8.333333333333e-002
          1.000000000000e-001 0.000000000000e+000 1.250000000000e-001
          1.000000000000e-001 0.000000000000e+000 1.666666666667e-001
          1.000000000000e-001 0.000000000000e+000 2.083333333333e-001
          1.000000000000e-001 0.000000000000e+000 2.500000000000e-001
          1.000000000000e-001 0.000000000000e+000 2.916666666667e-001
          1.000000000000e-001 0.000000000000e+000 3.333333333333e-001
          1.000000000000e-001 0.000000000000e+000 3.750000000000e-001
          1.000000000000e-001 0.000000000000e+000 4.166666666667e-001
          1.000000000000e-001 0.000000000000e+000 4.583333333333e-001
          1.000000000000e-001 0.000000000000e+000 5.000000000000e-001
          1.000000000000e-001 0.000000000000e+000 5.416666666667e-001
          1.000000000000e-001 0.000000000000e+000 5.833333333333e-001
          1.000000000000e-001 0.000000000000e+000 6.250000000000e-001
          1.000000000000e-001 0.000000000000e+000 6.666666666667e-001
          1.000000000000e-001 0.000000000000e+000 7.083333333333e-001
          1.000000000000e-001 0.000000000000e+000 7.500000000000e-001
          1.000000000000e-001 0.000000000000e+000 7.916666666667e-001
          1.000000000000e-001 0.000000000000e+000 8.333333333333e-001
          1.000000000000e-001 0.000000000000e+000 8.750000000000e-001
          1.000000000000e-001 0.000000000000e+000 9.166666666667e-001
          1.000000000000e-001 0.000000000000e+000 9.583333333333e-001
          3.333333333333e-002 0.000000000000e+000 1.000000000000e+000
          6.666666666666e-002 0.000000000000e+000 1.000000000000e+000
          0.000000000000e+000 0.000000000000e+000 4.166666666667e-002
          0.000000000000e+000 0.000000000000e+000 8.333333333333e-002
          0.000000000000e+000 0.000000000000e+000 1.250000000000e-001
          0.000000000000e+000 0.000000000000e+000 1.666666666667e-001
          0.000000000000e+000 0.000000000000e+000 2.083333333333e-001
          0.000000000000e+000 0.000000000000e+000 2.500000000000e-001
          0.000000000000e+000 0.000000000000e+000 2.916666666667e-001
          0.000000000000e+000 0.000000000000e+000 3.333333333333e-001
          0.000000000000e+000 0.000000000000e+000 3.750000000000e-001
          0.000000000000e+000 0.000000000000e+000 4.166666666667e-001
          0.000000000000e+000 0.000000000000e+000 4.583333333333e-001
          0.000000000000e+000 0.000000000000e+000 5.000000000000e-001
          0.000000000000e+000 0.000000000000e+000 5.416666666667e-001
          0.000000000000e+000 0.000000000000e+000 5.833333333333e-001
          0.000000000000e+000 0.000000000000e+000 6.250000000000e-001
          0.000000000000e+000 0.000000000000e+000 6.666666666667e-001
          0.000000000000e+000 0.000000000000e+000 7.083333333333e-001
          0.000000000000e+000 0.000000000000e+000 7.500000000000e-001
          0.000000000000e+000 0.000000000000e+000 7.916666666667e-001
          0.000000000000e+000 0.000000000000e+000 8.333333333333e-001
          0.000000000000e+000 0.000000000000e+000 8.750000000000e-001
          0.000000000000e+000 0.000000000000e+000 9.166666666667e-001
          0.000000000000e+000 0.000000000000e+000 9.583333333333e-001
          3.333333333333e-002 0.000000000000e+000 9.583333333333e-001
          6.666666666666e-002 0.000000000000e+000 9.583333333333e-001
          3.333333333333e-002 0.000000000000e+000 9.166666666667e-001
          6.666666666666e-002 0.000000000000e+000 9.166666666667e-001
          3.333333333333e-002 0.000000000000e+000 8.750000000000e-001
          6.666666666666e-002 0.000000000000e+000 8.750000000000e-001
          3.333333333333e-002 0.000000000000e+000 8.333333333333e-001
          6.666666666666e-002 0.000000000000e+000 8.333333333333e-001
          3.333333333333e-002 0.000000000000e+000 7.916666666667e-001
          6.666666666666e-002 0.000000000000e+000 7.916666666667e-001
          3.333333333333e-002 0.000000000000e+000 7.500000000000e-001
          6.666666666666e-002 0.000000000000e+000 7.500000000000e-001
          3.333333333333e-002 0.000000000000e+000 7.083333333333e-001
          6.666666666666e-002 0.000000000000e+000 7.083333333333e-001
          3.333333333333e-002 0.000000000000e+000 6.666666666667e-001
          6.666666666666e-002 0.000000000000e+000 6.666666666667e-001
          3.333333333333e-002 0.000000000000e+000 6.250000000000e-001
          6.666666666666e-002 0.000000000000e+000 6.250000000000e-001
          3.333333333333e-002 0.000000000000e+000 5.833333333333e-001
          6.666666666666e-002 0.000000000000e+000 5.833333333333e-001
          3.333333333333e-002 0.000000000000e+000 5.416666666667e-001
          6.666666666666e-002 0.000000000000e+000 5.416666666667e-001
          3.333333333333e-002 0.000000000000e+000 5.000000000000e-001
          6.666666666666e-002 0.000000000000e+000 5.000000000000e-001
          3.333333333333e-002 0.000000000000e+000 4.583333333333e-001
          6.666666666666e-002 0.000000000000e+000 4.583333333333e-001
          3.333333333333e-002 0.000000000000e+000 4.166666666667e-001
          6.666666666666e-002 0.000000000000e+000 4.166666666667e-001
          3.333333333333e-002 0.000000000000e+000 3.750000000000e-001
          6.666666666666e-002 0.000000000000e+000 3.750000000000e-001
          3.333333333333e-002 0.000000000000e+000 3.333333333333e-001
          6.666666666666e-002 0.000000000000e+000 3.333333333333e-001
          3.333333333333e-002 0.000000000000e+000 2.916666666667e-001
          6.666666666666e-002 0.000000000000e+000 2.916666666667e-001
          3.333333333333e-002 0.000000000000e+000 2.500000000000e-001
          6.666666666666e-002 0.000000000000e+000 2.500000000000e-001
          3.333333333333e-002 0.000000000000e+000 2.083333333333e-001
          6.666666666666e-002 0.000000000000e+000 2.083333333333e-001
          3.333333333333e-002 0.000000000000e+000 1.666666666667e-001
          6.666666666666e-002 0.000000000000e+000 1.666666666667e-001
          3.333333333333e-002 0.000000000000e+000 1.250000000000e-001
          6.666666666666e-002 0.000000000000e+000 1.250000000000e-001
          3.333333333333e-002 0.000000000000e+000 8.333333333333e-002
          6.666666666666e-002 0.000000000000e+000 8.333333333333e-002
          3.333333333333e-002 0.000000000000e+000 4.166666666667e-002
          6.666666666666e-002 0.000000000000e+000 4.166666666667e-002
        </DataArray>
      </Points>
      <Cells>
        <DataArray type="Int32" Name="connectivity" format="ascii">
          3 53 54 29 
          29 54 55 30 
          30 55 28 2 
          53 52 56 54 
          54 56 57 55 
          55 57 27 28 
          52 51 58 56 
          56 58 59 57 
          57 59 26 27 
          51 50 60 58 
          58 60 61 59 
          59 61 25 26 
          50 49 62 60 
          60 62 63 61 
          61 63 24 25 
          49 48 64 62 
          62 64 65 63 
          63 65 23 24 
          48 47 66 64 
          64 66 67 65 
          65 67 22 23 
          47 46 68 66 
          66 68 69 67 
          67 69 21 22 
          46 45 70 68 
          68 70 71 69 
          69 71 20 21 
          45 44 72 70 
          70 72 73 71 
          71 73 19 20 
          44 43 74 72 
          72 74 75 73 
          73 75 18 19 
          43 42 76 74 
          74 76 77 75 
          75 77 17 18 
          42 41 78 76 
          76 78 79 77 
          77 79 16 17 
          41 40 80 78 
          78 80 81 79 
          79 81 15 16 
          40 39 82 80 
          80 82 83 81 
          81 83 14 15 
          39 38 84 82 
          82 84 85 83 
          83 85 13 14 
          38 37 86 84 
          84 86 87 85 
          85 87 12 13 
          37 36 88 86 
          86 88 89 87 
          87 89 11 12 
          36 35 90 88 
          88 90 91 89 
          89 91 10 11 
          35 34 92 90 
          90 92 93 91 
          91 93 9 10 
          34 33 94 92 
          92 94 95 93 
          93 95 8 9 
          33 32 96 94 
          94 96 97 95 
          95 97 7 8 
          32 31 98 96 
          96 98 99 97 
          97 99 6 7 
          31 0 4 98 
          98 4 5 99 
          99 5 1 6 
        </DataArray>
        <DataArray type="Int32" Name="offsets" format="ascii">
          4 8 12 16 20 24 28 32 36 40 44 48 52 56 60 64 68 72 76 80 84 88 92 96 100 104 108 112 116 120 124 128 132 136 140 144 148 152 156 160 164 168 172 176 180 184 188 192 196 200 204 208 212 216 220 224 228 232 236 240 244 248 252 256 260 264 268 272 276 280 284 288 
        </DataArray>
        <DataArray type="UInt8" Name="types" format="ascii">
          9 9 9 9 9 9 9 9 9 9 9 9 9 9 9 9 9 9 9 9 9 9 9 9 9 9 9 9 9 9 9 9 9 9 9 9 9 9 9 9 9 9 9 9 9 9 9 9 9 9 9 9 9 9 9 9 9 9 9 9 9 9 9 9 9 9 9 9 9 9 9 9 
        </DataArray>
      </Cells>
      <PointData Scalars="PRESSURE1">
        <DataArray type="Float64" Name="PRESSURE1" format="ascii">
          1.000000000000E+02	1.000000000000E+02	9.238600000000E+03	9.238600000000E+03	1.000000000000E+02	1.000000000000E+02	1.049500000000E+02	1.087700000000E+02	1.117100000000E+02	1.140000000000E+02	1.158900000000E+02	1.176200000000E+02	1.195500000000E+02	1.221200000000E+02	1.260700000000E+02	1.324600000000E+02	1.429400000000E+02	1.599100000000E+02	1.866900000000E+02	2.276700000000E+02	2.883100000000E+02	3.748700000000E+02	4.938400000000E+02	6.508900000000E+02	8.500400000000E+02	1.112500000000E+03	1.603400000000E+03	2.507600000000E+03	4.337400000000E+03	9.238600000000E+03	9.238600000000E+03	1.049500000000E+02	1.087700000000E+02	1.117100000000E+02	1.140000000000E+02	1.158900000000E+02	1.176200000000E+02	1.195500000000E+02	1.221200000000E+02	1.260700000000E+02	1.324600000000E+02	1.429400000000E+02	1.599100000000E+02	1.866900000000E+02	2.276700000000E+02	2.883100000000E+02	3.748700000000E+02	4.938400000000E+02	6.508900000000E+02	8.500400000000E+02	1.112500000000E+03	1.603400000000E+03	2.507600000000E+03	4.337400000000E+03	4.337400000000E+03	4.337400000000E+03	2.507600000000E+03	2.507600000000E+03	1.603400000000E+03	1.603400000000E+03	1.112500000000E+03	1.112500000000E+03	8.500400000000E+02	8.500400000000E+02	6.508900000000E+02	6.508900000000E+02	4.938400000000E+02	4.938400000000E+02	3.748700000000E+02	3.748700000000E+02	2.883100000000E+02	2.883100000000E+02	2.276700000000E+02	2.276700000000E+02	1.866900000000E+02	1.866900000000E+02	1.599100000000E+02	1.599100000000E+02	1.429400000000E+02	1.429400000000E+02	1.324600000000E+02	1.324600000000E+02	1.260700000000E+02	1.260700000000E+02	1.221200000000E+02	1.221200000000E+02	1.195500000000E+02	1.195500000000E+02	1.176200000000E+02	1.176200000000E+02	1.158900000000E+02	1.158900000000E+02	1.140000000000E+02	1.140000000000E+02	1.117100000000E+02	1.117100000000E+02	1.087700000000E+02	1.087700000000E+02	1.049500000000E+02	1.049500000000E+02
        </DataArray>
        <DataArray type="Float64" Name="PRESSURE2" format="ascii">
          1.013300000000E+05	1.013300000000E+05	1.013300000000E+05	1.013300000000E+05	1.013300000000E+05	1.013300000000E+05	1.009500000000E+05	1.005800000000E+05	1.002000000000E+05	9.982400000000E+04	9.944800000000E+04	9.907100000000E+04	9.869400000000E+04	9.831800000000E+04	9.794300000000E+04	9.757100000000E+04	9.720200000000E+04	9.684100000000E+04	9.648800000000E+04	9.615100000000E+04	9.583200000000E+04	9.553900000000E+04	9.527900000000E+04	9.505600000000E+04	9.487600000000E+04	9.475800000000E+04	9.486800000000E+04	9.538800000000E+04	9.682900000000E+04	1.013300000000E+05	1.013300000000E+05	1.009500000000E+05	1.005800000000E+05	1.002000000000E+05	9.982400000000E+04	9.944800000000E+04	9.907100000000E+04	9.869400000000E+04	9.831800000000E+04	9.794300000000E+04	9.757100000000E+04	9.720200000000E+04	9.684100000000E+04	9.648800000000E+04	9.615100000000E+04	9.583200000000E+04	9.553900000000E+04	9.527900000000E+04	9.505600000000E+04	9.487600000000E+04	9.475800000000E+04	9.486800000000E+04	9.538800000000E+04	9.682900000000E+04	9.682900000000E+04	9.682900000000E+04	9.538800000000E+04	9.538800000000E+04	9.486800000000E+04	9.486800000000E+04	9.475800000000E+04	9.475800000000E+04	9.487600000000E+04	9.487600000000E+04	9.505600000000E+04	9.505600000000E+04	9.527900000000E+04	9.527900000000E+04	9.553900000000E+04	9.553900000000E+04	9.583200000000E+04	9.583200000000E+04	9.615100000000E+04	9.615100000000E+04	9.648800000000E+04	9.648800000000E+04	9.684100000000E+04	9.684100000000E+04	9.720200000000E+04	9.720200000000E+04	9.757100000000E+04	9.757100000000E+04	9.794300000000E+04	9.794300000000E+04	9.831800000000E+04	9.831800000000E+04	9.869400000000E+04	9.869400000000E+04	9.907100000000E+04	9.907100000000E+04	9.944800000000E+04	9.944800000000E+04	9.982400000000E+04	9.982400000000E+04	1.002000000000E+05	1.002000000000E+05	1.005800000000E+05	1.005800000000E+05	1.009500000000E+05	1.009500000000E+05
        </DataArray>
        <DataArray type="Float64" Name="SATURATION1" format="ascii">
          9.999600000000E-01	9.999600000000E-01	9.223700000000E-01	9.223700000000E-01	9.999600000000E-01	9.999600000000E-01	9.999600000000E-01	9.999600000000E-01	9.999600000000E-01	9.999600000000E-01	9.999600000000E-01	9.999600000000E-01	9.999500000000E-01	9.999500000000E-01	9.999500000000E-01	9.999500000000E-01	9.999500000000E-01	9.999400000000E-01	9.999300000000E-01	9.999100000000E-01	9.998900000000E-01	9.998600000000E-01	9.998100000000E-01	9.997500000000E-01	9.996900000000E-01	9.994300000000E-01	9.985600000000E-01	9.967800000000E-01	9.894900000000E-01	9.223700000000E-01	9.223700000000E-01	9.999600000000E-01	9.999600000000E-01	9.999600000000E-01	9.999600000000E-01	9.999600000000E-01	9.999600000000E-01	9.999500000000E-01	9.999500000000E-01	9.999500000000E-01	9.999500000000E-01	9.999500000000E-01	9.999400000000E-01	9.999300000000E-01	9.999100000000E-01	9.998900000000E-01	9.998600000000E-01	9.998100000000E-01	9.997500000000E-01	9.996900000000E-01	9.994300000000E-01	9.985600000000E-01	9.967800000000E-01	9.894900000000E-01	9.894900000000E-01	9.894900000000E-01	9.967800000000E-01	9.967800000000E-01	9.985600000000E-01	9.985600000000E-01	9.994300000000E-01	9.994300000000E-01	9.996900000000E-01	9.996900000000E-01	9.997500000000E-01	9.997500000000E-01	9.998100000000E-01	9.998100000000E-01	9.998600000000E-01	9.998600000000E-01	9.998900000000E-01	9.998900000000E-01	9.999100000000E-01	9.999100000000E-01	9.999300000000E-01	9.999300000000E-01	9.999400000000E-01	9.999400000000E-01	9.999500000000E-01	9.999500000000E-01	9.999500000000E-01	9.999500000000E-01	9.999500000000E-01	9.999500000000E-01	9.999500000000E-01	9.999500000000E-01	9.999500000000E-01	9.999500000000E-01	9.999600000000E-01	9.999600000000E-01	9.999600000000E-01	9.999600000000E-01	9.999600000000E-01	9.999600000000E-01	9.999600000000E-01	9.999600000000E-01	9.999600000000E-01	9.999600000000E-01	9.999600000000E-01	9.999600000000E-01
        </DataArray>
        <DataArray type="Float64" Name="NODAL_VELOCITY1" NumberOfComponents="3" format="ascii">
          -9.871716893002e-020 0.000000000000e+000 -3.289174498033e-007 -6.339176622609e-020 0.000000000000e+000 -3.289174497942e-007 2.417280087847e-014 0.000000000000e+000 -1.922661779920e-008 4.747907393276e-014 0.000000000000e+000 -1.922783686890e-008 -2.492174053373e-020 0.000000000000e+000 -3.289174497999e-007 -7.259039181768e-021 0.000000000000e+000 -3.289174497958e-007 1.720427719172e-018 0.000000000000e+000 -3.289091164090e-007 -4.875557084706e-018 0.000000000000e+000 -3.288865865391e-007 -2.491234638582e-018 0.000000000000e+000 -3.288496113375e-007 3.297096916344e-017 0.000000000000e+000 -3.287984757804e-007 3.495656932714e-017 0.000000000000e+000 -3.287326614746e-007 1.416749200220e-017 0.000000000000e+000 -3.286499741265e-007 1.505340009534e-017 0.000000000000e+000 -3.285453219996e-007 8.916869014918e-018 0.000000000000e+000 -3.284090970831e-007 7.159007772715e-017 0.000000000000e+000 -3.282251867294e-007 6.859945075974e-017 0.000000000000e+000 -3.279688123302e-007 1.757935127915e-017 0.000000000000e+000 -3.276046820144e-007 -9.984244410480e-018 0.000000000000e+000 -3.270863327294e-007 -7.915880378639e-017 0.000000000000e+000 -3.263578606155e-007 1.143841865802e-016 0.000000000000e+000 -3.253591101980e-007 2.034969818794e-016 0.000000000000e+000 -3.240341717181e-007 7.292634388091e-016 0.000000000000e+000 -3.223402549733e-007 1.273352571621e-015 0.000000000000e+000 -3.202504694822e-007 1.889066548297e-015 0.000000000000e+000 -3.177429417706e-007 1.297696452032e-015 0.000000000000e+000 -3.147788209084e-007 1.049893517250e-015 0.000000000000e+000 -3.077410162905e-007 -1.838384833488e-014 0.000000000000e+000 -2.903686294041e-007 -1.034789228191e-013 0.000000000000e+000 -2.513964881419e-007 -1.323897561647e-013 0.000000000000e+000 -1.218146490934e-007 5.956381280094e-014 0.000000000000e+000 -1.922733518882e-008 4.791093903275e-014 0.000000000000e+000 -1.922672564188e-008 4.237267387566e-018 0.000000000000e+000 -3.289091164121e-007 8.754156099661e-018 0.000000000000e+000 -3.288865865431e-007 1.368070985323e-017 0.000000000000e+000 -3.288496113688e-007 9.858801951505e-018 0.000000000000e+000 -3.287984758122e-007 1.523241515235e-017 0.000000000000e+000 -3.287326614617e-007 1.307129357250e-017 0.000000000000e+000 -3.286499741275e-007 3.686286856771e-017 0.000000000000e+000 -3.285453219904e-007 5.942519213653e-018 0.000000000000e+000 -3.284090970672e-007 -3.996652234832e-017 0.000000000000e+000 -3.282251867951e-007 2.795874321669e-017 0.000000000000e+000 -3.279688123266e-007 9.006246410284e-018 0.000000000000e+000 -3.276046819274e-007 -1.992729179617e-018 0.000000000000e+000 -3.270863326056e-007 -4.877685552233e-017 0.000000000000e+000 -3.263578604525e-007 -3.304259347766e-016 0.000000000000e+000 -3.253591106095e-007 1.835613735066e-016 0.000000000000e+000 -3.240341734814e-007 1.259278541887e-015 0.000000000000e+000 -3.223402569131e-007 1.538251381066e-015 0.000000000000e+000 -3.202504701670e-007 9.544169910627e-016 0.000000000000e+000 -3.177429413653e-007 1.009047066672e-015 0.000000000000e+000 -3.147788177522e-007 -2.146966678493e-015 0.000000000000e+000 -3.077410080689e-007 1.043677705186e-014 0.000000000000e+000 -2.903685955357e-007 5.948916336908e-014 0.000000000000e+000 -2.513958189978e-007 -6.930458849401e-013 0.000000000000e+000 -1.218147407402e-007 -7.592608754975e-013 0.000000000000e+000 -1.218147457690e-007 -4.789329992158e-013 0.000000000000e+000 -1.218146999472e-007 7.751318124990e-015 0.000000000000e+000 -2.513961067530e-007 -7.373254562515e-014 0.000000000000e+000 -2.513964413331e-007 1.244580374578e-015 0.000000000000e+000 -2.903685705296e-007 -1.316577931929e-014 0.000000000000e+000 -2.903685874631e-007 -1.622162545175e-015 0.000000000000e+000 -3.077410043084e-007 -2.376176946332e-017 0.000000000000e+000 -3.077410084192e-007 1.657942641656e-015 0.000000000000e+000 -3.147788189920e-007 1.802259954869e-015 0.000000000000e+000 -3.147788205703e-007 1.899312987014e-015 0.000000000000e+000 -3.177429415769e-007 2.366769583443e-015 0.000000000000e+000 -3.177429417794e-007 2.174615565532e-015 0.000000000000e+000 -3.202504702884e-007 2.042332873309e-015 0.000000000000e+000 -3.202504699458e-007 1.623797256681e-015 0.000000000000e+000 -3.223402563716e-007 1.358831806435e-015 0.000000000000e+000 -3.223402554016e-007 2.849481395697e-016 0.000000000000e+000 -3.240341728458e-007 2.949385266885e-016 0.000000000000e+000 -3.240341719641e-007 -2.730301876753e-016 0.000000000000e+000 -3.253591105165e-007 -5.049065026158e-017 0.000000000000e+000 -3.253591103110e-007 -8.802677377664e-017 0.000000000000e+000 -3.263578605839e-007 -1.032892153883e-016 0.000000000000e+000 -3.263578606654e-007 -6.976743722094e-018 0.000000000000e+000 -3.270863326288e-007 -1.087091124307e-017 0.000000000000e+000 -3.270863326906e-007 1.795476100914e-017 0.000000000000e+000 -3.276046819395e-007 2.226897571063e-017 0.000000000000e+000 -3.276046819829e-007 6.251706634199e-017 0.000000000000e+000 -3.279688123069e-007 8.292456615216e-017 0.000000000000e+000 -3.279688123087e-007 -4.034190734184e-018 0.000000000000e+000 -3.282251867863e-007 5.175025879526e-017 0.000000000000e+000 -3.282251867533e-007 1.038323355426e-017 0.000000000000e+000 -3.284090970978e-007 1.182445341062e-017 0.000000000000e+000 -3.284090971056e-007 4.414733768908e-017 0.000000000000e+000 -3.285453219931e-007 3.322815708668e-017 0.000000000000e+000 -3.285453219978e-007 1.969193629385e-017 0.000000000000e+000 -3.286499741190e-007 2.019761378435e-017 0.000000000000e+000 -3.286499741186e-007 3.274892799018e-017 0.000000000000e+000 -3.287326614604e-007 4.264620365679e-017 0.000000000000e+000 -3.287326614672e-007 2.638551375511e-017 0.000000000000e+000 -3.287984758116e-007 3.788457284885e-017 0.000000000000e+000 -3.287984757957e-007 1.204737234270e-017 0.000000000000e+000 -3.288496113682e-007 4.035330992088e-018 0.000000000000e+000 -3.288496113528e-007 6.169848741455e-018 0.000000000000e+000 -3.288865865393e-007 -6.934232062734e-019 0.000000000000e+000 -3.288865865372e-007 4.860323260108e-018 0.000000000000e+000 -3.289091164086e-007 3.601903425911e-018 0.000000000000e+000 -3.289091164071e-007 
        </DataArray>
        <DataArray type="Float64" Name="NODAL_VELOCITY2" NumberOfComponents="3" format="ascii">
          -1.278352584798e-025 0.000000000000e+000 2.693634324034e-011 -6.865828214585e-026 0.000000000000e+000 2.693627099291e-011 1.021885190629e-019 0.000000000000e+000 -3.427746594627e-010 8.052855657929e-020 0.000000000000e+000 -3.427744927390e-010 2.431516021085e-025 0.000000000000e+000 2.693631938707e-011 2.727400902750e-025 0.000000000000e+000 2.693631800423e-011 2.781030136967e-022 0.000000000000e+000 2.687779091399e-011 -1.179429270431e-022 0.000000000000e+000 2.685084072755e-011 -5.165698556869e-021 0.000000000000e+000 2.680680307063e-011 -9.762968402140e-021 0.000000000000e+000 2.674614696874e-011 -7.732877157084e-021 0.000000000000e+000 2.666838311340e-011 -5.157605049026e-021 0.000000000000e+000 2.657104701267e-011 -5.719327707549e-021 0.000000000000e+000 2.644829069074e-011 -5.365044681325e-021 0.000000000000e+000 2.628903628114e-011 -5.970129299934e-021 0.000000000000e+000 2.607473292664e-011 -9.344767133044e-021 0.000000000000e+000 2.577695443314e-011 -1.410699125507e-020 0.000000000000e+000 2.535540339640e-011 -1.315512647616e-021 0.000000000000e+000 2.475731289098e-011 -5.902551618297e-021 0.000000000000e+000 2.391957798426e-011 -2.227582086399e-020 0.000000000000e+000 2.277476019078e-011 -6.066163637251e-020 0.000000000000e+000 2.126068713997e-011 -5.548725943534e-020 0.000000000000e+000 1.933023623235e-011 1.670776989787e-019 0.000000000000e+000 1.695398576393e-011 3.373176663985e-019 0.000000000000e+000 1.410729826244e-011 9.907884765452e-019 0.000000000000e+000 1.073998579766e-011 -5.378030863072e-019 0.000000000000e+000 2.671092431177e-012 6.149810191645e-019 0.000000000000e+000 -1.699018312666e-011 -3.011655831473e-018 0.000000000000e+000 -6.204796872605e-011 2.084175238067e-017 0.000000000000e+000 -2.108127004235e-010 1.316358170541e-019 0.000000000000e+000 -3.427734828058e-010 1.424648816320e-019 0.000000000000e+000 -3.427736352835e-010 -1.621612296523e-022 0.000000000000e+000 2.687783316376e-011 -8.211901601846e-022 0.000000000000e+000 2.685088292204e-011 1.534798372112e-021 0.000000000000e+000 2.680684518662e-011 -1.442530815230e-021 0.000000000000e+000 2.674618897397e-011 -4.793249222331e-021 0.000000000000e+000 2.666842497300e-011 -4.682681907309e-021 0.000000000000e+000 2.657108869705e-011 -5.116455904282e-022 0.000000000000e+000 2.644833215545e-011 4.065627135966e-021 0.000000000000e+000 2.628907746964e-011 -5.450622936989e-021 0.000000000000e+000 2.607477373012e-011 -7.427591701588e-021 0.000000000000e+000 2.577699467548e-011 -3.108898198411e-021 0.000000000000e+000 2.535544283536e-011 -2.125948237271e-021 0.000000000000e+000 2.475735120267e-011 1.553003049234e-020 0.000000000000e+000 2.391961476266e-011 2.252101898043e-020 0.000000000000e+000 2.277479488909e-011 5.656948100082e-020 0.000000000000e+000 2.126071906864e-011 9.813433672380e-020 0.000000000000e+000 1.933026472188e-011 -9.481292626804e-020 0.000000000000e+000 1.695400990871e-011 4.887405033519e-020 0.000000000000e+000 1.410731725734e-011 -2.502748520915e-019 0.000000000000e+000 1.073999989451e-011 9.724697723931e-019 0.000000000000e+000 2.671085977822e-012 7.321460249789e-019 0.000000000000e+000 -1.699024036808e-011 1.466378255068e-017 0.000000000000e+000 -6.204814164256e-011 1.643691754813e-017 0.000000000000e+000 -2.108132540652e-010 2.686015376347e-017 0.000000000000e+000 -2.108128303393e-010 2.906257176604e-017 0.000000000000e+000 -2.108128508853e-010 1.315785620764e-017 0.000000000000e+000 -6.204802314520e-011 4.320136333456e-018 0.000000000000e+000 -6.204801343135e-011 1.039646112612e-018 0.000000000000e+000 -1.699020755542e-011 9.810638616387e-019 0.000000000000e+000 -1.699020344203e-011 7.035643125574e-019 0.000000000000e+000 2.671074315712e-012 -5.157270799583e-020 0.000000000000e+000 2.671076254232e-012 2.451188941997e-019 0.000000000000e+000 1.073997304238e-011 8.656515387408e-019 0.000000000000e+000 1.073997533287e-011 2.175374848942e-019 0.000000000000e+000 1.410728267896e-011 3.617587312096e-019 0.000000000000e+000 1.410728573574e-011 -1.127628035259e-020 0.000000000000e+000 1.695396887690e-011 1.196682650997e-019 0.000000000000e+000 1.695397226064e-011 7.039191510114e-020 0.000000000000e+000 1.933021824497e-011 -6.420571182849e-021 0.000000000000e+000 1.933022189780e-011 2.623668647779e-020 0.000000000000e+000 2.126066831861e-011 -3.237780310540e-020 0.000000000000e+000 2.126067225753e-011 1.138592663509e-020 0.000000000000e+000 2.277474072588e-011 -1.101515231497e-020 0.000000000000e+000 2.277474487188e-011 1.257965646578e-020 0.000000000000e+000 2.391955803988e-011 1.863527264168e-021 0.000000000000e+000 2.391956236253e-011 -2.782339951411e-021 0.000000000000e+000 2.475729262001e-011 -2.376968440977e-021 0.000000000000e+000 2.475729707385e-011 -1.016136786153e-020 0.000000000000e+000 2.535538292628e-011 -1.566056077612e-020 0.000000000000e+000 2.535538746070e-011 -1.209883718576e-020 0.000000000000e+000 2.577693383521e-011 -1.305760197914e-020 0.000000000000e+000 2.577693842237e-011 -8.434646450207e-021 0.000000000000e+000 2.607471222603e-011 -8.695002978822e-021 0.000000000000e+000 2.607471685233e-011 1.380010731971e-021 0.000000000000e+000 2.628901549188e-011 -3.334874742863e-021 0.000000000000e+000 2.628902015379e-011 -3.371048943863e-021 0.000000000000e+000 2.644826982664e-011 -5.975986558587e-021 0.000000000000e+000 2.644827451806e-011 -7.262697550969e-021 0.000000000000e+000 2.657102608961e-011 -7.499864187679e-021 0.000000000000e+000 2.657103079905e-011 -8.657415917604e-021 0.000000000000e+000 2.666836214199e-011 -1.012808054895e-020 0.000000000000e+000 2.666836686467e-011 -6.322350289788e-021 0.000000000000e+000 2.674612596547e-011 -1.048249968956e-020 0.000000000000e+000 2.674613069617e-011 -1.050454760122e-021 0.000000000000e+000 2.680678204376e-011 -4.399767022331e-021 0.000000000000e+000 2.680678678312e-011 -8.823089479704e-022 0.000000000000e+000 2.685081968258e-011 -5.304924715843e-022 0.000000000000e+000 2.685082443082e-011 -2.506440085200e-023 0.000000000000e+000 2.687776986619e-011 1.950677208225e-022 0.000000000000e+000 2.687777461875e-011 
        </DataArray>
      </PointData>
      <CellData>
      </CellData>
    </Piece>
  </UnstructuredGrid>
</VTKFile>
