<?xml version="1.0"?>
<VTKFile type="UnstructuredGrid" version="0.1" byte_order="LittleEndian">
  <UnstructuredGrid>
    <Piece NumberOfCells="16" NumberOfPoints="13">
      <PointData Scalars="displacement[0]">
        <DataArray type="Float32" Name="displacement[0]" NumberOfComponents="1" format="ascii">
          -0.00535714 -0.00535714 0 -0.0107143 0 -0.0107143 0 -0.0214286 -0.0160714 -0.0214286 -0.0214286 -0.0160714
          -0.0107143
        </DataArray>
        <DataArray type="Float32" Name="displacement[1]" NumberOfComponents="1" format="ascii">
          0.0125 0.0375 0.025 0.025 0.05 0.05 0 0.05 0.0375 0.025 0 0.0125
          0
        </DataArray>
      </PointData>
      <Points>
        <DataArray type="Float32" Name="Coordinates" NumberOfComponents="3" format="ascii">
          0.25 0.25 0 0.25 0.75 0 0 0.5 0 0.5 0.5 0
          0 1 0 0.5 1 0 0 0 0 1 1 0
          0.75 0.75 0 1 0.5 0 1 0 0 0.75 0.25 0
          0.5 0 0
        </DataArray>
      </Points>
      <Cells>
        <DataArray type="Int32" Name="connectivity" NumberOfComponents="1" format="ascii">
          0 1 2 3 1 0 4 1 5 6 0 2
          7 8 9 10 11 12 5 1 3 5 3 8
          9 8 3 12 3 0 12 11 3 9 3 11
          6 12 0 10 9 11 4 2 1 7 5 8
        </DataArray>
        <DataArray type="Int32" Name="offsets" NumberOfComponents="1" format="ascii">
          3 6 9 12 15 18 21 24 27 30 33 36
          39 42 45 48
        </DataArray>
        <DataArray type="UInt8" Name="types" NumberOfComponents="1" format="ascii">
          5 5 5 5 5 5 5 5 5 5 5 5
          5 5 5 5
        </DataArray>
      </Cells>
    </Piece>
  </UnstructuredGrid>
</VTKFile>
