<?xml version="1.0"?>
<VTKFile type="UnstructuredGrid" version="0.1" byte_order="LittleEndian">
  <UnstructuredGrid>
    <Piece NumberOfCells="256" NumberOfPoints="145">
      <PointData Scalars="displacement[0]">
        <DataArray type="Float32" Name="displacement[0]" NumberOfComponents="1" format="ascii">
          -0.00182677 -0.00197417 -0.00132358 -0.0022597 -0.00145856 -0.000868326 -0.00281826 -0.00172637 -0.00394839 -0.00226539 -0.00121049 -0.000514755
          -0.000981632 0 -0.000439225 -0.00622015 -0.00555778 -0.00467781 -0.00497429 -0.0039975 -0.00347832 -0.00444505 -0.003387 -0.00283551
          -0.00255064 0 -0.00150135 -0.00599524 -0.00253308 -0.00589987 -0.0106737 -0.00330599 -0.00611954 -0.00645079 -0.00980802 -0.0138946
          -0.0100325 -0.0185036 -0.0147811 0 -0.00039217 0 -0.00080571 -0.000390955 0 -0.0012706 -0.000816952 -0.000404166
          0 -0.0343561 -0.0293159 -0.0289323 -0.0247163 -0.0245316 -0.0246897 -0.0205658 -0.0205822 -0.0168709 -0.0170471 -0.0175516
          -0.0183242 -0.020916 -0.0192953 -0.0215397 -0.0164677 -0.0147257 -0.0129761 -0.0130911 -0.0113711 -0.00981504 -0.0115811 -0.00990603
          -0.0102174 -0.00858082 -0.00715499 -0.00592619 -0.00841377 -0.00488442 -0.00709558 -0.0134512 -0.00977236 -0.00988847 -0.00674924 -0.00712706
          -0.00759709 -0.0176731 -0.0132343 -0.0171051 -0.0101606 -0.00817425 -0.0105898 -0.0134842 -0.0132477 -0.0168298 -0.0154955 -0.0145962
          -0.0120244 -0.0139174 -0.0112134 -0.00892304 -0.0048933 -0.00392881 -0.00507124 -0.00400023 -0.00312091 -0.00547023 -0.00422201 -0.00322603
          -0.00243015 -0.00604407 -0.00740595 -0.00900714 -0.00794631 -0.00702486 -0.00637301 -0.0166047 -0.0130268 -0.0142225 -0.00981696 -0.0108744
          -0.0121039 -0.000796421 -0.00178123 -0.0012572 -0.00310421 -0.0023954 -0.00179182 -0.016599 -0.0170501 -0.0149777 -0.0179105 -0.0155697
          -0.0134682 0 0 -0.000905795 0 -0.000652068 -0.00163438 -0.0301957 -0.0262701 -0.025285 -0.022441 -0.0214451
          -0.0208224
        </DataArray>
        <DataArray type="Float32" Name="displacement[1]" NumberOfComponents="1" format="ascii">
          0.009141 0.0136134 0.0107964 0.0180314 0.0149583 0.0123502 0.0224336 0.0190014 0.026953 0.0229615 0.0198545 0.0174514
          0.0162022 0.0155314 0.0138874 0.0236799 0.0249703 0.019315 0.0259417 0.0206412 0.0154603 0.026602 0.0216714 0.0168692
          0.0120849 0.025 0.0261702 0.03125 0.0268023 0.03175 0.0375 0.0270432 0.0319405 0.03184 0.0374592 0.043568
          0.0376176 0.05 0.04375 0 0.00204499 0.00406206 0.00419211 0.00612222 0.00805276 0.00652882 0.00833313 0.0100898
          0.0118995 0.075 0.0669791 0.0645515 0.0594778 0.057207 0.0543344 0.0524288 0.0503157 0.0458022 0.0438291 0.0413586
          0.0383962 0.0476626 0.0349723 0.0444434 0 0.00410728 0 0.00796586 0.00382641 0 0.0115084 0.00732556
          0.0146891 0.0104715 0.00660252 0.00310856 0.00348175 0 0 0.0430411 0.0370274 0.0362992 0.0315014 0.030838
          0.0298532 0.0494493 0.042244 0.0486144 0.0352529 0.0285318 0.0338574 0.0396227 0.0411221 0.0474244 0.0326657 0.0354361
          0.0298852 0.0377494 0.0320732 0.0268177 0.00585278 0.00274686 0.0117257 0.00824141 0.00515084 0.0176493 0.0137542 0.0103046
          0.00726187 0.00934715 0.0132422 0.0175335 0.0199675 0.022008 0.015631 0.0294451 0.0272696 0.0242214 0.0247211 0.022217
          0.0192965 0 0 0.00218441 0 0.00242561 0.00458236 0.00839821 0.0169386 0.012358 0.0257471 0.0207756
          0.0160133 0.0240924 0.0218079 0.0236197 0.0188729 0.02072 0.0233357 0.06875 0.0625 0.0612142 0.05625 0.0553645
          0.0541101
        </DataArray>
      </PointData>
      <Points>
        <DataArray type="Float32" Name="Coordinates" NumberOfComponents="3" format="ascii">
          0.25 0.25 0 0.25 0.375 0 0.1875 0.3125 0 0.25 0.5 0
          0.1875 0.4375 0 0.125 0.375 0 0.25 0.625 0 0.1875 0.5625 0
          0.25 0.75 0 0.1875 0.6875 0 0.125 0.625 0 0.0625 0.5625 0
          0.125 0.5 0 0 0.5 0 0.0625 0.4375 0 0.5 0.5 0
          0.4375 0.5625 0 0.4375 0.4375 0 0.375 0.625 0 0.375 0.5 0
          0.375 0.375 0 0.3125 0.6875 0 0.3125 0.5625 0 0.3125 0.4375 0
          0.3125 0.3125 0 0 1 0 0.0625 0.9375 0 0.125 1 0
          0.125 0.875 0 0.1875 0.9375 0 0.25 1 0 0.1875 0.8125 0
          0.25 0.875 0 0.3125 0.8125 0 0.375 0.875 0 0.4375 0.9375 0
          0.3125 0.9375 0 0.5 1 0 0.375 1 0 0 0 0
          0.0625 0.0625 0 0 0.125 0 0.125 0.125 0 0.0625 0.1875 0
          0 0.25 0 0.1875 0.1875 0 0.125 0.25 0 0.0625 0.3125 0
          0 0.375 0 1 1 0 0.9375 0.9375 0 1 0.875 0
          0.875 0.875 0 0.9375 0.8125 0 1 0.75 0 0.8125 0.8125 0
          0.875 0.75 0 0.75 0.75 0 0.8125 0.6875 0 0.875 0.625 0
          0.9375 0.5625 0 0.9375 0.6875 0 1 0.5 0 1 0.625 0
          1 0 0 0.9375 0.0625 0 0.875 0 0 0.875 0.125 0
          0.8125 0.0625 0 0.75 0 0 0.8125 0.1875 0 0.75 0.125 0
          0.75 0.25 0 0.6875 0.1875 0 0.625 0.125 0 0.5625 0.0625 0
          0.6875 0.0625 0 0.5 0 0 0.625 0 0 0.5 0.875 0
          0.4375 0.8125 0 0.5 0.75 0 0.375 0.75 0 0.4375 0.6875 0
          0.5 0.625 0 0.5625 0.9375 0 0.5625 0.8125 0 0.625 0.875 0
          0.5625 0.6875 0 0.5625 0.5625 0 0.625 0.625 0 0.6875 0.6875 0
          0.625 0.75 0 0.6875 0.8125 0 0.875 0.5 0 0.8125 0.5625 0
          0.75 0.5 0 0.75 0.625 0 0.6875 0.5625 0 0.625 0.5 0
          0.5 0.125 0 0.4375 0.0625 0 0.5 0.25 0 0.4375 0.1875 0
          0.375 0.125 0 0.5 0.375 0 0.4375 0.3125 0 0.375 0.25 0
          0.3125 0.1875 0 0.5625 0.1875 0 0.625 0.25 0 0.6875 0.3125 0
          0.625 0.375 0 0.5625 0.4375 0 0.5625 0.3125 0 0.9375 0.4375 0
          0.8125 0.4375 0 0.875 0.375 0 0.6875 0.4375 0 0.75 0.375 0
          0.8125 0.3125 0 0.125 0 0 0.25 0 0 0.1875 0.0625 0
          0.375 0 0 0.3125 0.0625 0 0.25 0.125 0 1 0.125 0
          1 0.25 0 0.9375 0.1875 0 1 0.375 0 0.9375 0.3125 0
          0.875 0.25 0 0 0.875 0 0 0.75 0 0.0625 0.8125 0
          0 0.625 0 0.0625 0.6875 0 0.125 0.75 0 0.875 1 0
          0.75 1 0 0.8125 0.9375 0 0.625 1 0 0.6875 0.9375 0
          0.75 0.875 0
        </DataArray>
      </Points>
      <Cells>
        <DataArray type="Int32" Name="connectivity" NumberOfComponents="1" format="ascii">
          0 1 2 1 3 4 4 5 2 1 4 2
          3 6 7 6 8 9 9 10 7 6 9 7
          10 11 12 11 13 14 14 5 12 11 14 12
          3 7 4 7 10 12 12 5 4 7 12 4
          15 16 17 16 18 19 19 20 17 16 19 17
          18 21 22 21 8 6 6 3 22 21 6 22
          3 1 23 1 0 24 24 20 23 1 24 23
          18 22 19 22 3 23 23 20 19 22 23 19
          25 26 27 26 28 29 29 30 27 26 29 27
          28 31 32 31 8 33 33 34 32 31 33 32
          34 35 36 35 37 38 38 30 36 35 38 36
          28 32 29 32 34 36 36 30 29 32 36 29
          39 40 41 40 42 43 43 44 41 40 43 41
          42 45 46 45 0 2 2 5 46 45 2 46
          5 14 47 14 13 48 48 44 47 14 48 47
          42 46 43 46 5 47 47 44 43 46 47 43
          49 50 51 50 52 53 53 54 51 50 53 51
          52 55 56 55 57 58 58 59 56 55 58 56
          59 60 61 60 62 63 63 54 61 60 63 61
          52 56 53 56 59 61 61 54 53 56 61 53
          64 65 66 65 67 68 68 69 66 65 68 66
          67 70 71 70 72 73 73 74 71 70 73 71
          74 75 76 75 77 78 78 69 76 75 78 76
          67 71 68 71 74 76 76 69 68 71 76 68
          37 35 79 35 34 80 80 81 79 35 80 79
          34 33 82 33 8 21 21 18 82 33 21 82
          18 16 83 16 15 84 84 81 83 16 84 83
          34 82 80 82 18 83 83 81 80 82 83 80
          37 79 85 79 81 86 86 87 85 79 86 85
          81 84 88 84 15 89 89 90 88 84 89 88
          90 91 92 91 57 93 93 87 92 91 93 92
          81 88 86 88 90 92 92 87 86 88 92 86
          62 60 94 60 59 95 95 96 94 60 95 94
          59 58 97 58 57 91 91 90 97 58 91 97
          90 89 98 89 15 99 99 96 98 89 99 98
          59 97 95 97 90 98 98 96 95 97 98 95
          77 100 101 100 102 103 103 104 101 100 103 101
          102 105 106 105 15 17 17 20 106 105 17 106
          20 24 107 24 0 108 108 104 107 24 108 107
          102 106 103 106 20 107 107 104 103 106 107 103
          77 75 100 75 74 109 109 102 100 75 109 100
          74 73 110 73 72 111 111 112 110 73 111 110
          112 113 114 113 15 105 105 102 114 113 105 114
          74 110 109 110 112 114 114 102 109 110 114 109
          62 94 115 94 96 116 116 117 115 94 116 115
          96 99 118 99 15 113 113 112 118 99 113 118
          112 111 119 111 72 120 120 117 119 111 120 119
          96 118 116 118 112 119 119 117 116 118 119 116
          39 121 40 121 122 123 123 42 40 121 123 40
          122 124 125 124 77 101 101 104 125 124 101 125
          104 108 126 108 0 45 45 42 126 108 45 126
          122 125 123 125 104 126 126 42 123 125 126 123
          64 127 65 127 128 129 129 67 65 127 129 65
          128 130 131 130 62 115 115 117 131 130 115 131
          117 120 132 120 72 70 70 67 132 120 70 132
          128 131 129 131 117 132 132 67 129 131 132 129
          25 133 26 133 134 135 135 28 26 133 135 26
          134 136 137 136 13 11 11 10 137 136 11 137
          10 9 138 9 8 31 31 28 138 9 31 138
          134 137 135 137 10 138 138 28 135 137 138 135
          49 139 50 139 140 141 141 52 50 139 141 50
          140 142 143 142 37 85 85 87 143 142 85 143
          87 93 144 93 57 55 55 52 144 93 55 144
          140 143 141 143 87 144 144 52 141 143 144 141
        </DataArray>
        <DataArray type="Int32" Name="offsets" NumberOfComponents="1" format="ascii">
          3 6 9 12 15 18 21 24 27 30 33 36
          39 42 45 48 51 54 57 60 63 66 69 72
          75 78 81 84 87 90 93 96 99 102 105 108
          111 114 117 120 123 126 129 132 135 138 141 144
          147 150 153 156 159 162 165 168 171 174 177 180
          183 186 189 192 195 198 201 204 207 210 213 216
          219 222 225 228 231 234 237 240 243 246 249 252
          255 258 261 264 267 270 273 276 279 282 285 288
          291 294 297 300 303 306 309 312 315 318 321 324
          327 330 333 336 339 342 345 348 351 354 357 360
          363 366 369 372 375 378 381 384 387 390 393 396
          399 402 405 408 411 414 417 420 423 426 429 432
          435 438 441 444 447 450 453 456 459 462 465 468
          471 474 477 480 483 486 489 492 495 498 501 504
          507 510 513 516 519 522 525 528 531 534 537 540
          543 546 549 552 555 558 561 564 567 570 573 576
          579 582 585 588 591 594 597 600 603 606 609 612
          615 618 621 624 627 630 633 636 639 642 645 648
          651 654 657 660 663 666 669 672 675 678 681 684
          687 690 693 696 699 702 705 708 711 714 717 720
          723 726 729 732 735 738 741 744 747 750 753 756
          759 762 765 768
        </DataArray>
        <DataArray type="UInt8" Name="types" NumberOfComponents="1" format="ascii">
          5 5 5 5 5 5 5 5 5 5 5 5
          5 5 5 5 5 5 5 5 5 5 5 5
          5 5 5 5 5 5 5 5 5 5 5 5
          5 5 5 5 5 5 5 5 5 5 5 5
          5 5 5 5 5 5 5 5 5 5 5 5
          5 5 5 5 5 5 5 5 5 5 5 5
          5 5 5 5 5 5 5 5 5 5 5 5
          5 5 5 5 5 5 5 5 5 5 5 5
          5 5 5 5 5 5 5 5 5 5 5 5
          5 5 5 5 5 5 5 5 5 5 5 5
          5 5 5 5 5 5 5 5 5 5 5 5
          5 5 5 5 5 5 5 5 5 5 5 5
          5 5 5 5 5 5 5 5 5 5 5 5
          5 5 5 5 5 5 5 5 5 5 5 5
          5 5 5 5 5 5 5 5 5 5 5 5
          5 5 5 5 5 5 5 5 5 5 5 5
          5 5 5 5 5 5 5 5 5 5 5 5
          5 5 5 5 5 5 5 5 5 5 5 5
          5 5 5 5 5 5 5 5 5 5 5 5
          5 5 5 5 5 5 5 5 5 5 5 5
          5 5 5 5 5 5 5 5 5 5 5 5
          5 5 5 5
        </DataArray>
      </Cells>
    </Piece>
  </UnstructuredGrid>
</VTKFile>
