<VTKFile type="UnstructuredGrid" version="1.0" byte_order="LittleEndian" header_type="UInt64">
  <UnstructuredGrid>
    <Piece NumberOfPoints="409" NumberOfCells="736">
      <PointData>
        <DataArray type="Float64" Name="OGS5_PRESSURE1" format="ascii" RangeMin="100000" RangeMax="109989.2177">
          100000 100000 103559.57306 100000 106550.93242 100000
          109987.39584 102982.75875 109948.09785 105461.54057 109917.0925 108422.24259
          109898.3891 109896.04128 100000 100000 100000 100000
          100000 100000 100356.04912 100713.23197 101071.64946 101431.55592
          101792.42482 102154.41578 102517.70437 102882.04211 103057.1325 102554.93511
          102050.50538 101542.98104 101032.43996 100518.45917 100000 100000
          100000 100000 100000 100352.83417 100706.0896 101059.80982
          101414.0517 101768.90061 102124.28013 102480.28607 102836.85268 103193.88805
          103551.58107 103909.55361 104268.07363 104626.78574 104985.75853 105344.9623
          105704.72732 106063.9835 106054.90136 105558.67543 105060.83342 104561.8438
          104060.87805 100000 100000 100000 100000 100000
          100000 100351.73237 100703.49926 101055.33148 101407.26284 101759.3396
          102111.55718 102463.96782 102816.58699 103169.46986 103522.55616 103875.8889
          104229.51506 104583.33431 104937.40945 105291.75087 105646.26444 106000.95624
          106355.75147 106710.68671 107065.70729 107420.71949 107775.72495 108130.51235
          108485.33126 108840.07367 109194.4014 109547.32536 109502.26796 109013.22803
          108521.80722 108030.30488 107538.22216 107045.13004 100497.40316 100994.76167
          101492.01301 101989.13757 102486.06222 103333.91457 103685.05391 104036.26728
          104387.52204 104738.88371 105090.33877 105441.91867 105793.54852 106145.28502
          106497.14338 106849.09602 107201.13201 107553.27918 107905.43421 108257.6492
          108609.86215 108962.15563 109314.43939 109955.99717 109964.40977 109973.15686
          109982.3082 109989.2177 103479.18836 103975.31591 104471.07756 104966.49565
          105811.45367 106161.33682 106511.25079 106861.22336 107211.26306 107561.27286
          107911.34901 108261.43574 108611.53249 108961.73512 109311.9382 109922.1309
          109927.75669 109933.97592 109940.76861 105956.14116 106450.30652 106943.98156
          107437.24553 107929.99218 108770.16834 109118.05562 109465.99236 109900.16555
          109902.44339 109905.27919 109908.66674 109912.60377 108913.99297 109405.27423
          109896.30833 109897.06708 100924.33105 102824.77627 101110.3547 105605.39262
          101714.31072 109524.89983 109408.9354 101281.05315 100500.68537 100534.05671
          100695.23623 100546.97068 100437.71582 100675.38889 102367.1314 100512.12283
          101199.03165 101245.38277 101746.82538 101896.42712 101400.22986 100994.36062
          101295.20266 101894.27091 102295.10677 100969.72575 100584.55413 101365.04708
          100615.6213 102746.70231 100440.96713 103806.16249 101930.18169 103669.32057
          103403.48037 102168.26471 103941.18795 103385.92802 103779.62237 100851.49012
          100744.37029 104463.37098 101595.71291 102654.39513 104830.7952 105393.71665
          103093.23981 104340.02331 104441.06515 105068.01161 104370.89297 104288.98993
          103459.67054 101172.40924 101683.34972 102154.11732 100358.21796 102640.46783
          103116.41443 104195.34094 100986.36182 103695.91145 101881.62286 101185.88554
          105163.33457 102847.92931 102663.12321 104886.67098 103227.91516 103982.40665
          102458.43535 105719.09419 103839.78969 104603.22321 102593.40781 105601.36285
          105047.16212 104763.38159 105908.16937 105509.57755 104037.37367 106671.89097
          102790.88252 103491.28329 105355.44459 105331.516 104424.80741 105184.89691
          107357.23201 106269.73812 105596.85376 106215.98907 105910.22775 106771.45777
          107016.57561 107626.36121 107225.40445 108324.96022 108438.74282 109023.48232
          108875.76813 109473.53271 109418.35574 108314.74599 107614.96061 101445.27195
          101857.61641 102308.77576 105263.8622 104014.16581 103212.05957 106341.63521
          105178.85108 103883.31861 106821.59766 105871.85546 105705.7778 106238.26761
          106460.75754 106816.44563 106684.06228 106663.26264 105252.71836 105985.59209
          107744.6807 105704.99607 106695.42812 108240.10871 107377.57375 107894.44378
          107370.74549 107654.00978 108404.73273 108878.5388 108109.14026 108068.37065
          109461.54125 108791.34793 109502.55543 104614.62261 106441.98622 106176.09013
          107330.15779 107358.32162 107047.98127 108223.24916 107646.11375 108281.60006
          109192.21527 108904.40673 109440.26926 108114.92976 108704.49189 109446.23457
          106896.58356 107299.73252 107769.12467 108087.67126 108807.33212 109433.67983
          109537.17012 102960.77995 101989.23475 100932.37207 100423.50549 101406.70112
          102455.27522 103729.9671 104929.71237 100732.72541 102173.18883 103182.33343
          104049.01246 104691.41229 102280.83031 103395.5542 105259.00428 104454.73039
          103639.00349 106885.1007 106193.35783 108968.72346 107896.44593 104922.82378
          103515.40911 106461.10859 105294.91745 105535.51212 107881.63831 108088.5258
          107733.01007 109062.88249 109446.52287 107702.18512 106015.8487 101852.93245
          109179.5287 100806.66623 101524.52287 101660.52378 101562.52146 102404.30786
          102175.74325 103213.90873 103130.75188 104201.69056 103354.97703 103129.04222
          104294.4656 103579.84544 102705.25705 103001.93414 104757.92753 104153.90196
          102060.41055 106817.4505 104687.46022 105144.63034 106519.03129 105822.29695
          102347.95581 107139.84987 107751.1165 106396.02653 107237.02739 108540.29902
          107212.11987 105823.6905 107216.49426 105974.67607 106327.53008 107187.56261
          108606.52954 108461.78325 109071.417 107016.55861 108523.3482 107780.88509
          108971.82091 109082.53779 101658.96169 107551.46523 102830.5678 105344.95827
          108599.14665
        </DataArray>
        <DataArray type="Float64" Name="OGS5_TEMPERATURE1" format="ascii" RangeMin="281.34236159" RangeMax="373">
          373 293.00006716 373 292.99999998 373 293
          373 293 292.99893369 293 292.99999877 293
          293 293 292.30178892 290.02674625 293.52063051 292.96706852
          293.00276957 293.00038069 292.99907559 293.00373299 292.99654072 292.94805218
          293.10986669 293.4018402 289.85069795 281.34236159 373 373
          373 373 373 373 292.99995631 293.00000318
          293.000001 292.99999983 293.00000003 293.00000004 293.00000005 292.99999961
          293.00000518 292.99998391 292.99997837 293.00020695 292.99937834 292.99848233
          293.00375999 292.98356784 292.9136605 292.95153706 293.53530115 293.21386463
          289.88125544 291.2182855 373 373 373 373
          373 293.00000001 293 293 293 293
          293 293 293 293 293 293
          293 293 293 292.99999999 293.0000001 293.00000015
          292.99999914 293.00000217 292.99999738 293.00000361 292.99993569 293.0001466
          292.99951267 292.99800853 293.00300626 293.0128438 292.90578748 293.33121961
          293.34522356 291.83401282 289.98159626 294.22490318 373 373
          373 373 373 373 293 293
          293 293 293 293 293 293
          293 293 293 293 293 292.99999997
          293.00000014 292.99999976 292.99999829 293.00000655 293.00001195 292.99998411
          293.00009314 293.00020712 293.00025036 293.00615319 292.97992542 293.24905699
          291.38906486 297.36264243 293 293 293 293
          293 293 293 293 293 293
          293 293 292.99999998 293.00000003 292.99999964 293.00000548
          292.99998493 292.99993775 293.00014501 293 293 293
          293 293 293 293 293 293
          293 292.99999998 293.00000009 293.00000026 293 293
          293 293 293.45164355 292.9144733 293.00022324 293.01046582
          293.00000004 292.99967207 293.00000214 293.45600082 292.98977499 293.00026567
          292.96826346 292.83395276 293.00000292 290.21948468 299.59312851 292.99999946
          290.53650252 292.99996662 293.00013916 286.7317963 298.77328181 292.99817209
          293.01054556 292.98309412 292.96987991 293 292.99996922 293
          293 293.69128194 293 292.38767023 293.00276848 292.99999117
          293.00022369 292.9990328 289.3023959 292.98559185 293.08560736 293
          293 290.9734554 292.99999977 293.00000009 294.13456165 298.95525836
          293.00000005 292.99999429 293.00004577 291.05795477 298.32783679 293.54493776
          290.4796839 293.00000005 293.00000218 293.00000006 293 293.00000617
          293.00007528 292.99901079 293 292.99947341 293 293
          292.99921696 293 293 293.01266993 293 293
          292.99999999 292.99986174 292.99999999 293.00000001 292.99999908 293.10809642
          293.00000002 292.9999998 292.47897475 293.00000009 292.99997743 294.97315757
          293 293 292.99932482 293.00021301 293 292.99999999
          291.63409482 293.01285604 292.99999999 293.00000168 292.9450868 293.68428186
          293.00000737 293.00030131 293.40397685 287.3329743 292.99936781 292.97204498
          295.99319067 292.90218715 293.71762792 292.21541564 293.56360857 293
          293 293 292.99999916 293 293 292.99999941
          293 293 292.99996233 293 293 292.99997759
          293 293 293.00030188 292.99999998 293 293.00000017
          292.99993246 293 293.00000168 293.00553554 293 293.00000028
          292.99995663 293.0062649 293.00000022 292.99998741 293.00015555 292.95787071
          293.00000232 292.99822455 293.00369026 293 293 293
          293 293.0000002 293 293 292.9999991 293
          293 293 293 292.99999786 292.99999991 292.99999639
          293 293 293 293 293 293
          293 293.01105951 293 293.0000036 292.99999999 292.99999999
          292.99481635 293.00000394 293.00000085 293 293.00000351 292.99999076
          293.00014473 292.99992635 293 293 292.92565378 293.00000013
          292.99996548 290.86817257 293.44713083 293.25577734 291.83649116 293
          293 292.99999378 293 293 292.99877227 292.99999997
          293 292.99999999 293.00000004 293 292.99912817 292.99999999
          292.99861401 292.99999456 293.00375319 292.62763367 292.99947001 293.00416641
          293.00000001 292.92321416 291.02846726 293.00000099 293.39391798 293.00000042
          293.0081471 292.9999993 292.99996541 293 292.99999437 292.99999996
          292.9999997 293.01542438 292.99999998 292.99999999 292.88595261 293.00000856
          293 292.87878853 290.4580471 291.00066211 292.99848967 292.9111404
          293.27869403 292.99999896 293.00027424 293 293.00000001 293
          293.01226688 293.00000175 292.99999495 293.00000003 293 293
          293.00000178 293.00547105 293 292.99999997 292.99935582 293.0000017
          293
        </DataArray>
        <DataArray type="Float64" Name="pressure_ref" format="ascii" RangeMin="100000" RangeMax="110307.93245">
          100000 100000 103769.71991 100000 106847.55103 100000
          110306.55297 103056.57535 110205.45337 105584.19162 110116.2402 108577.83176
          110062.63398 110055.91188 100000 100000 100000 100000
          100000 100000 100373.22202 100749.74471 101129.82822 101514.23319
          101901.32491 102291.0882 102679.41542 103062.20956 103244.65107 102718.35785
          102187.67 101650.5763 101108.3888 100558.47631 100000 100000
          100000 100000 100000 100363.96493 100729.1306 101095.62431
          101463.60409 101833.31485 102204.53097 102577.51921 102952.08313 103327.95639
          103705.65931 104084.10831 104464.13149 104844.77583 105226.271 105605.99723
          105981.85539 106351.50189 106341.6652 105833.64996 105321.95998 104807.32735
          104289.70669 100000 100000 100000 100000 100000
          100000 100360.82265 100721.74189 101082.84914 101444.23714 101806.04134
          102168.24678 102531.00045 102894.34983 103258.4482 103623.12739 103988.50791
          104354.72157 104721.48791 105088.98457 105457.24091 105825.99778 106195.27521
          106564.87424 106934.90913 107305.22837 107675.60209 108046.10537 108416.60861
          108786.44384 109154.60634 109515.72059 109869.00758 109823.61521 109335.40845
          108842.89039 108347.68091 107849.95734 107349.99072 100510.21793 101020.30855
          101530.09374 102039.51754 102548.37155 103415.75467 103774.88526 104134.22894
          104493.68921 104853.45687 105213.49219 105573.88347 105934.42212 106295.26733
          106656.46769 107017.94482 107379.66817 107741.72421 108103.81797 108466.09985
          108828.39711 109190.94691 109553.49159 110228.28229 110252.69677 110278.07311
          110300.30642 110307.93245 103564.0183 104070.60014 104576.13871 105080.69746
          105939.82704 106295.37555 106651.01465 107006.82082 107362.8226 107718.74162
          108074.8519 108430.99805 108787.17521 109143.66215 109500.15484 110130.70232
          110146.86476 110164.75235 110184.31538 106086.41774 106587.40133 107086.98434
          107585.39263 108082.32183 108927.78794 109277.63241 109627.62078 110067.72094
          110074.24494 110082.3691 110092.0773 110103.3648 109071.91088 109564.64737
          110056.67638 110058.84872 100990.25451 102969.74307 101156.61603 105827.75865
          101766.43555 109784.28796 109610.33671 101365.3944 100529.25066 100557.27105
          100740.22098 100589.99907 100453.92399 100729.55335 102522.26933 100529.84549
          101288.8912 101292.94068 101816.45315 102027.9125 101500.39255 101040.3146
          101361.17479 101991.94049 102422.56675 100998.26152 100607.90556 101403.64022
          100632.52622 102905.56497 100452.51911 104018.53239 102018.84198 103794.86653
          103535.57396 102259.76869 104166.02345 103547.36611 103968.97146 100874.15629
          100765.43133 104703.11995 101646.9838 102733.14188 105085.31642 105664.65676
          103185.98875 104481.26937 104595.04112 105327.58696 104610.30752 104506.37743
          103665.6039 101209.01464 101740.3963 102220.88148 100367.89186 102730.82818
          103231.63064 104361.54464 101011.76363 103844.04492 101929.56865 101218.13839
          105351.56851 102920.20467 102732.81892 105092.52149 103310.46972 104084.99843
          102528.26271 105918.68813 103943.10933 104720.93904 102675.91107 105854.17031
          105182.3326 104899.10968 106184.38925 105657.55139 104178.08426 106970.76124
          102860.60709 103578.19314 105559.6321 105513.1859 104534.78252 105316.63729
          107660.22579 106503.90211 105739.81768 106386.22909 106153.44159 107052.68577
          107202.83431 107845.28418 107532.84227 108644.23758 108670.96485 109302.34172
          109198.07288 109766.76778 109729.39441 108623.97594 107902.40798 101482.46231
          101905.64652 102367.02577 105415.24294 104110.49229 103291.80913 106506.00277
          105298.01878 103980.35101 107016.45977 106005.37563 105839.012 106426.10663
          106604.50515 106969.3196 106890.37362 106819.1523 105372.27909 106139.56147
          107953.08766 105832.65979 106870.63345 108486.57852 107536.85958 108073.04783
          107568.31456 107897.28716 108586.3961 109086.05765 108329.09382 108330.69972
          109686.79103 109036.62733 109778.51073 104723.0674 106579.28941 106312.38816
          107477.81683 107531.97512 107200.54176 108380.56181 107828.05182 108437.08371
          109356.89072 109074.35085 109614.30949 108303.58891 108893.7699 109658.98622
          107040.0008 107448.93451 107920.56958 108247.62301 108967.06439 109602.98697
          109697.49066 103097.70127 102044.60609 100965.77569 100435.96084 101448.32763
          102577.37019 103849.09912 105092.69918 100755.23683 102247.8837 103290.7887
          104199.82678 104861.53848 102340.10028 103486.47284 105488.6004 104579.09541
          103771.46685 107184.10322 106460.54781 109266.00697 108203.91593 105038.64258
          103606.30325 106642.44324 105419.155 105661.95161 108113.34901 108262.39659
          107899.45039 109238.97396 109626.93344 107856.92429 106232.22225 101906.48254
          109430.7133 100837.0795 101596.90252 101773.33791 101630.57121 102513.81522
          102240.14867 103381.69749 103318.20297 104332.29968 103540.40727 103229.11891
          104475.78442 103688.20486 102803.47171 103081.46704 104944.13233 104267.32711
          102127.50777 107063.28151 104811.693 105287.15376 106775.50614 105992.65014
          102407.7245 107407.18777 108065.09757 106685.28812 107461.5863 108820.75739
          107497.27163 105983.17753 107424.78821 106114.4303 106474.71546 107349.07401
          108868.62525 108660.00227 109289.69581 107181.37784 108688.51564 107933.69707
          109168.60249 109345.3871 101704.28998 107721.37087 102953.83262 105504.83107
          108760.69282
        </DataArray>
        <DataArray type="Float64" Name="temperature_ref" format="ascii" RangeMin="292.33770501" RangeMax="373">
          373 292.99947582 373 292.99999995 373 293
          373 293 293.00139839 293 293.00000301 293
          293 293 326.08745412 299.42212203 292.93880942 292.83258486
          293.00251377 293.00268232 293.00181655 293.01278567 292.9997746 292.82316891
          292.59050404 293.19452448 299.40140779 314.43909368 373 373
          373 373 373 373 293.00012263 293.00000285
          292.99999113 293.00000137 293.00000008 292.99999979 293.00000071 292.99999951
          292.99998131 293.00003632 293.00011065 292.99977632 292.99760524 292.99901365
          293.01402268 293.02983439 292.90778225 292.71907652 292.72008311 296.28216676
          306.54120948 325.44201299 373 373 373 373
          373 293.00000003 292.99999999 293 293 293
          293 293 293 293 293 293
          293 293.00000001 293.00000002 292.9999998 292.99999963 293.00000004
          293.00000205 292.99999652 292.99998388 293.00000344 293.00006665 293.00007939
          292.99811851 292.99917187 293.01067485 293.01793692 292.83868575 292.33770501
          293.19898857 295.86141228 307.92483863 328.71672126 373 373
          373 373 373 373 293 293
          293 293 293 293 293 293
          293 293 293 293 293.00000003 292.99999998
          292.99999963 293.00000088 293.00000384 292.99999139 292.99997518 293.00006801
          293.00025841 292.99968056 292.9987914 293.00597982 292.88949054 293.17192569
          299.38277505 326.96039253 293 293 293 293
          293 293 293 293 293 293
          293 293.00000003 292.99999992 292.99999965 293.00000087 292.99998612
          293.00000396 293.00026317 292.99977978 293 293 293
          293 293 293 293 293 293
          293 293.00000007 292.99999957 293 293 293
          293 293 294.01944541 292.87559169 292.99960519 293.01996785
          292.99999987 293.0054546 292.99999745 292.7188934 292.96226485 292.99919959
          292.66292122 295.54955651 292.99998875 318.96568894 328.59313665 292.99999912
          301.1398586 293.00012241 292.99994191 309.67369455 332.39105746 292.9983076
          293.02646086 293.01881977 292.60447632 292.99999996 293.00014541 293.00000002
          293 292.38627709 293 295.11350752 293.00936816 292.99999815
          292.99938957 292.99804933 319.60013973 292.98869443 292.54819521 293
          293.00000001 298.8212351 293.00000126 293.00000007 326.3887966 329.29391433
          293.0000009 292.99999197 293.00011638 302.54988838 330.81455988 292.71923463
          314.06162949 293.00000023 292.99998992 293.0000007 293 292.99998139
          293.00026695 292.99950201 293 292.99910706 293 293
          292.99827876 293 293 293.02674037 293 293
          292.99999997 292.9983994 293.00000006 293.00000001 293.00000103 292.75267815
          292.9999998 293.00000066 295.71761314 293.00000017 293.0000743 325.8709106
          293 293 293.00469315 293.00000599 293 293.00000004
          296.88775128 293.02655804 292.99999985 292.99999728 292.89110253 292.769878
          292.99997207 292.99962948 324.3977995 315.94025105 292.99804498 292.93159719
          325.96148017 292.77127797 294.24594176 295.59469153 292.45411976 293
          293 293 293.00000311 293 293 293.00000168
          293 293 293.00015799 293 293 293.00014866
          293 293 292.99963226 293.00000003 293 292.99999974
          293.00014513 293 292.99999973 293.00940369 293 293.0000001
          293.00000149 293.01087539 293.00000005 292.99998487 292.99994672 293.03508339
          293.00018592 292.99873822 292.99600455 293 293 293
          293 293.0000001 293 293 293.00000249 293
          293 293.00000001 293.00000002 293.00000325 293.00000209 292.99998659
          293 293 293 293 293 293
          293 293.02417404 293.00000001 292.99998628 293.00000003 292.99999992
          293.01115872 292.99999158 293.00016435 292.99999982 292.99998579 292.99999093
          292.99955367 292.99891999 293 293.00000003 292.86568543 292.99999975
          293.00010572 301.59638968 292.57806891 292.59017917 295.61362094 293
          293 292.99997307 293 293 292.99785864 292.99999983
          293.00000003 293.00000001 292.99999985 293 293.00283776 293.00000001
          293.0013352 293.00003046 293.01300765 295.32602214 292.99826808 293.01096667
          292.99999983 292.69747732 297.01718642 292.99999642 292.9132247 292.99999737
          293.02413727 293.00000224 293.00010455 293 293.00330915 292.99999997
          292.99999946 293.02476383 293.00000002 293.00000056 292.83263433 292.99997196
          293 292.83542999 320.32444459 298.42673367 292.99703173 292.78584366
          292.943677 293.00000314 293.00031742 293 293.00000001 293.00000003
          293.02916344 292.99998571 293.00014777 292.99999978 293 293
          292.99999792 293.01499363 293 292.99999984 293.00312776 292.99999
          293
        </DataArray>
      </PointData>
      <CellData>
      </CellData>
      <Points>
        <DataArray type="Float64" Name="Points" NumberOfComponents="3" format="ascii" RangeMin="0" RangeMax="1.4142135624">
          0 1 0 0.35 1 0
          0 0.65 0 0.65 1 0
          0 0.35 0 1 1 0
          0 0 0 1 0.7 0
          0.3 0 0 1 0.45 0
          0.55 0 0 1 0.15 0
          0.85 0 0 1 0 0
          0.05 1 0 0.1 1 0
          0.15 1 0 0.2 1 0
          0.25 1 0 0.3 1 0
          0.3146447 0.9646447 0 0.2792893 0.9292893 0
          0.243934 0.893934 0 0.2085786 0.8585786 0
          0.1732233 0.8232233 0 0.137868 0.787868 0
          0.1025126 0.7525126 0 0.0671573 0.7171573 0
          0 0.7 0 0 0.75 0
          0 0.8 0 0 0.85 0
          0 0.9 0 0 0.95 0
          0.4 1 0 0.45 1 0
          0.5 1 0 0.55 1 0
          0.6 1 0 0.6146447 0.9646447 0
          0.5792893 0.9292893 0 0.543934 0.893934 0
          0.5085786 0.8585786 0 0.4732233 0.8232233 0
          0.437868 0.787868 0 0.4025126 0.7525126 0
          0.3671573 0.7171573 0 0.3318019 0.6818019 0
          0.2964466 0.6464466 0 0.2610913 0.6110913 0
          0.2257359 0.5757359 0 0.1903806 0.5403806 0
          0.1550253 0.5050253 0 0.1196699 0.4696699 0
          0.0843146 0.4343146 0 0.0489592 0.3989592 0
          0 0.4 0 0 0.45 0
          0 0.5 0 0 0.55 0
          0 0.6 0 0.7 1 0
          0.75 1 0 0.8 1 0
          0.85 1 0 0.9 1 0
          0.95 1 0 0.9646447 0.9646447 0
          0.9292893 0.9292893 0 0.893934 0.893934 0
          0.8585786 0.8585786 0 0.8232233 0.8232233 0
          0.787868 0.787868 0 0.7525126 0.7525126 0
          0.7171573 0.7171573 0 0.6818019 0.6818019 0
          0.6464466 0.6464466 0 0.6110913 0.6110913 0
          0.5757359 0.5757359 0 0.5403806 0.5403806 0
          0.5050253 0.5050253 0 0.4696699 0.4696699 0
          0.4343146 0.4343146 0 0.3989592 0.3989592 0
          0.3636039 0.3636039 0 0.3282486 0.3282486 0
          0.2928932 0.2928932 0 0.2575379 0.2575379 0
          0.2221825 0.2221825 0 0.1868272 0.1868272 0
          0.1514719 0.1514719 0 0.1161165 0.1161165 0
          0.0807612 0.0807612 0 0.0454058 0.0454058 0
          0 0.05 0 0 0.1 0
          0 0.15 0 0 0.2 0
          0 0.25 0 0 0.3 0
          1 0.95 0 1 0.9 0
          1 0.85 0 1 0.8 0
          1 0.75 0 0.9646447 0.6646447 0
          0.9292893 0.6292893 0 0.893934 0.593934 0
          0.8585786 0.5585786 0 0.8232233 0.5232233 0
          0.787868 0.487868 0 0.7525126 0.4525126 0
          0.7171573 0.4171573 0 0.6818019 0.3818019 0
          0.6464466 0.3464466 0 0.6110913 0.3110913 0
          0.5757359 0.2757359 0 0.5403806 0.2403806 0
          0.5050253 0.2050253 0 0.4696699 0.1696699 0
          0.4343146 0.1343146 0 0.3989592 0.0989592 0
          0.3636039 0.0636039 0 0.25 0 0
          0.2 0 0 0.15 0 0
          0.1 0 0 0.05 0 0
          1 0.65 0 1 0.6 0
          1 0.55 0 1 0.5 0
          0.9646447 0.4146447 0 0.9292893 0.3792893 0
          0.893934 0.343934 0 0.8585786 0.3085786 0
          0.8232233 0.2732233 0 0.787868 0.237868 0
          0.7525126 0.2025126 0 0.7171573 0.1671573 0
          0.6818019 0.1318019 0 0.6464466 0.0964466 0
          0.6110913 0.0610913 0 0.5 0 0
          0.45 0 0 0.4 0 0
          0.35 0 0 1 0.4 0
          1 0.35 0 1 0.3 0
          1 0.25 0 1 0.2 0
          0.9646447 0.1146447 0 0.9292893 0.0792893 0
          0.893934 0.043934 0 0.8 0 0
          0.75 0 0 0.7 0 0
          0.65 0 0 0.6 0 0
          1 0.1 0 1 0.05 0
          0.95 0 0 0.9 0 0
          0.1386669 0.9092954 0 0.2205733 0.7200281 0
          0.3892349 0.8893531 0 0.2592583 0.4408492 0
          0.6333525 0.8281123 0 0.2913113 0.0432503 0
          0.5339067 0.0519231 0 0.1572066 0.8739524 0
          0.2303477 0.9505107 0 0.3680229 0.9468328 0
          0.18322 0.931535 0 0.1191167 0.9465011 0
          0.4762052 0.9562708 0 0.0589619 0.934656 0
          0.0492148 0.7684091 0 0.5267881 0.9487694 0
          0.0960346 0.8828756 0 0.4467515 0.8756618 0
          0.4080503 0.8257591 0 0.0752094 0.8146083 0
          0.0430041 0.8640069 0 0.3282179 0.901156 0
          0.2700338 0.8715813 0 0.2496534 0.8122625 0
          0.1982172 0.773034 0 0.6812425 0.9027168 0
          0.4221482 0.9416942 0 0.7270401 0.8629713 0
          0.7849903 0.938174 0 0.1593176 0.7287129 0
          0.8901208 0.9556836 0 0.1225396 0.6237926 0
          0.313023 0.8081114 0 0.4673902 0.6328637 0
          0.3795328 0.6603266 0 0.3601709 0.784002 0
          0.0599259 0.6116388 0 0.2417766 0.6637427 0
          0.1936535 0.6251426 0 0.8409994 0.9144466 0
          0.7366589 0.9252781 0 0.1033596 0.5584904 0
          0.5812202 0.8401551 0 0.6354938 0.7337457 0
          0.049764 0.5228539 0 0.0460548 0.4663829 0
          0.6092419 0.6897809 0 0.4817512 0.5653562 0
          0.4234946 0.5557596 0 0.0930717 0.498102 0
          0.0450381 0.5689396 0 0.1607562 0.5747672 0
          0.0696486 0.6594735 0 0.6146411 0.8824994 0
          0.531203 0.8315392 0 0.604179 0.7840844 0
          0.8215747 0.9640157 0 0.5015985 0.7358056 0
          0.4256778 0.6886582 0 0.3322755 0.5814894 0
          0.9582188 0.9008483 0 0.3446878 0.6314028 0
          0.9450639 0.8108261 0 0.7915834 0.880886 0
          0.3481599 0.4840222 0 0.8735979 0.7136598 0
          0.8115653 0.7323571 0 0.2542368 0.5132128 0
          0.8264893 0.6754898 0 0.7621381 0.5996797 0
          0.6925395 0.7532306 0 0.3526508 0.4279887 0
          0.7059359 0.6142585 0 0.7333391 0.5372258 0
          0.566787 0.7401699 0 0.1652197 0.4429488 0
          0.6418205 0.4929314 0 0.5877922 0.5218918 0
          0.1167204 0.4130687 0 0.6087802 0.4464968 0
          0.436864 0.5961808 0 0.0504839 0.3375414 0
          0.943037 0.7193347 0 0.8742414 0.6488816 0
          0.3033058 0.4653218 0 0.3937728 0.4665112 0
          0.7944572 0.5549874 0 0.7003595 0.4787014 0
          0.1121696 0.2667937 0 0.2660756 0.373762 0
          0.6637159 0.4373237 0 0.5415754 0.3757087 0
          0.2138762 0.4109264 0 0.1527787 0.3251819 0
          0.5171731 0.294974 0 0.3972637 0.2345998 0
          0.0529565 0.2814895 0 0.0645604 0.1696842 0
          0.3730866 0.1525049 0 0.2235964 0.095416 0
          0.0504222 0.1138183 0 0.1842476 0.0503005 0
          0.1314582 0.0568888 0 0.1229656 0.1693975 0
          0.1687315 0.2394751 0 0.9267413 0.8547158 0
          0.8845918 0.813278 0 0.9574454 0.7678492 0
          0.5510476 0.471734 0 0.9569937 0.596097 0
          0.9151694 0.6769516 0 0.5923029 0.3625767 0
          0.9102653 0.4786257 0 0.8282002 0.6094746 0
          0.4591375 0.315324 0 0.8338368 0.4087703 0
          0.7961499 0.4256845 0 0.4484913 0.3744072 0
          0.8043209 0.3493 0 0.7458368 0.3135426 0
          0.3977794 0.329976 0 0.6955662 0.3293236 0
          0.9538934 0.4711173 0 0.6266994 0.3983006 0
          0.4486782 0.2219617 0 0.9150266 0.4254579 0
          0.5557335 0.3271058 0 0.3143804 0.1735315 0
          0.7452548 0.2566936 0 0.6221587 0.205063 0
          0.480954 0.2594889 0 0.3057777 0.2331142 0
          0.6274905 0.153212 0 0.4929287 0.1063247 0
          0.4125561 0.1854378 0 0.2558143 0.1919075 0
          0.4206352 0.047859 0 0.3319399 0.1172677 0
          0.2368525 0.0464212 0 0.9322219 0.5355532 0
          0.9582292 0.3508596 0 0.8682464 0.3779095 0
          0.9453839 0.2608895 0 0.6203011 0.259444 0
          0.7825541 0.2899229 0 0.8746892 0.1703792 0
          0.5847439 0.2305604 0 0.9384537 0.1643309 0
          0.8250536 0.0720087 0 0.747365 0.1016353 0
          0.7232303 0.047235 0 0.5689264 0.183137 0
          0.5890809 0.1230712 0 0.476828 0.0487394 0
          0.9269107 0.3048544 0 0.8849688 0.2640756 0
          0.956699 0.2163499 0 0.8129254 0.1843442 0
          0.8915777 0.110972 0 0.7723592 0.0476479 0
          0.938881 0.0366068 0 0.2777286 0.7057225 0
          0.7344084 0.8002651 0 0.4961744 0.9067919 0
          0.6858134 0.9575134 0 0.6693521 0.8588921 0
          0.2519711 0.7564293 0 0.5241027 0.6263267 0
          0.439663 0.5064411 0 0.6364254 0.926545 0
          0.5095462 0.7825769 0 0.4877549 0.681565 0