<VTKFile type="UnstructuredGrid" version="1.0" byte_order="LittleEndian" header_type="UInt64">
  <UnstructuredGrid>
    <Piece NumberOfPoints="409" NumberOfCells="736">
      <PointData>
        <DataArray type="Float64" Name="OGS5_PRESSURE1" format="ascii" RangeMin="100000" RangeMax="109989.2177">
          100000 100000 103559.57306 100000 106550.93242 100000
          109987.39584 102982.75875 109948.09785 105461.54057 109917.0925 108422.24259
          109898.3891 109896.04128 100000 100000 100000 100000
          100000 100000 100356.04912 100713.23197 101071.64946 101431.55592
          101792.42482 102154.41578 102517.70437 102882.04211 103057.1325 102554.93511
          102050.50538 101542.98104 101032.43996 100518.45917 100000 100000
          100000 100000 100000 100352.83417 100706.0896 101059.80982
          101414.0517 101768.90061 102124.28013 102480.28607 102836.85268 103193.88805
          103551.58107 103909.55361 104268.07363 104626.78574 104985.75853 105344.9623
          105704.72732 106063.9835 106054.90136 105558.67543 105060.83342 104561.8438
          104060.87805 100000 100000 100000 100000 100000
          100000 100351.73237 100703.49926 101055.33148 101407.26284 101759.3396
          102111.55718 102463.96782 102816.58699 103169.46986 103522.55616 103875.8889
          104229.51506 104583.33431 104937.40945 105291.75087 105646.26444 106000.95624
          106355.75147 106710.68671 107065.70729 107420.71949 107775.72495 108130.51235
          108485.33126 108840.07367 109194.4014 109547.32536 109502.26796 109013.22803
          108521.80722 108030.30488 107538.22216 107045.13004 100497.40316 100994.76167
          101492.01301 101989.13757 102486.06222 103333.91457 103685.05391 104036.26728
          104387.52204 104738.88371 105090.33877 105441.91867 105793.54852 106145.28502
          106497.14338 106849.09602 107201.13201 107553.27918 107905.43421 108257.6492
          108609.86215 108962.15563 109314.43939 109955.99717 109964.40977 109973.15686
          109982.3082 109989.2177 103479.18836 103975.31591 104471.07756 104966.49565
          105811.45367 106161.33682 106511.25079 106861.22336 107211.26306 107561.27286
          107911.34901 108261.43574 108611.53249 108961.73512 109311.9382 109922.1309
          109927.75669 109933.97592 109940.76861 105956.14116 106450.30652 106943.98156
          107437.24553 107929.99218 108770.16834 109118.05562 109465.99236 109900.16555
          109902.44339 109905.27919 109908.66674 109912.60377 108913.99297 109405.27423
          109896.30833 109897.06708 100924.33105 102824.77627 101110.3547 105605.39262
          101714.31072 109524.89983 109408.9354 101281.05315 100500.68537 100534.05671
          100695.23623 100546.97068 100437.71582 100675.38889 102367.1314 100512.12283
          101199.03165 101245.38277 101746.82538 101896.42712 101400.22986 100994.36062
          101295.20266 101894.27091 102295.10677 100969.72575 100584.55413 101365.04708
          100615.6213 102746.70231 100440.96713 103806.16249 101930.18169 103669.32057
          103403.48037 102168.26471 103941.18795 103385.92802 103779.62237 100851.49012
          100744.37029 104463.37098 101595.71291 102654.39513 104830.7952 105393.71665
          103093.23981 104340.02331 104441.06515 105068.01161 104370.89297 104288.98993
          103459.67054 101172.40924 101683.34972 102154.11732 100358.21796 102640.46783
          103116.41443 104195.34094 100986.36182 103695.91145 101881.62286 101185.88554
          105163.33457 102847.92931 102663.12321 104886.67098 103227.91516 103982.40665
          102458.43535 105719.09419 103839.78969 104603.22321 102593.40781 105601.36285
          105047.16212 104763.38159 105908.16937 105509.57755 104037.37367 106671.89097
          102790.88252 103491.28329 105355.44459 105331.516 104424.80741 105184.89691
          107357.23201 106269.73812 105596.85376 106215.98907 105910.22775 106771.45777
          107016.57561 107626.36121 107225.40445 108324.96022 108438.74282 109023.48232
          108875.76813 109473.53271 109418.35574 108314.74599 107614.96061 101445.27195
          101857.61641 102308.77576 105263.8622 104014.16581 103212.05957 106341.63521
          105178.85108 103883.31861 106821.59766 105871.85546 105705.7778 106238.26761
          106460.75754 106816.44563 106684.06228 106663.26264 105252.71836 105985.59209
          107744.6807 105704.99607 106695.42812 108240.10871 107377.57375 107894.44378
          107370.74549 107654.00978 108404.73273 108878.5388 108109.14026 108068.37065
          109461.54125 108791.34793 109502.55543 104614.62261 106441.98622 106176.09013
          107330.15779 107358.32162 107047.98127 108223.24916 107646.11375 108281.60006
          109192.21527 108904.40673 109440.26926 108114.92976 108704.49189 109446.23457
          106896.58356 107299.73252 107769.12467 108087.67126 108807.33212 109433.67983
          109537.17012 102960.77995 101989.23475 100932.37207 100423.50549 101406.70112
          102455.27522 103729.9671 104929.71237 100732.72541 102173.18883 103182.33343
          104049.01246 104691.41229 102280.83031 103395.5542 105259.00428 104454.73039
          103639.00349 106885.1007 106193.35783 108968.72346 107896.44593 104922.82378
          103515.40911 106461.10859 105294.91745 105535.51212 107881.63831 108088.5258
          107733.01007 109062.88249 109446.52287 107702.18512 106015.8487 101852.93245
          109179.5287 100806.66623 101524.52287 101660.52378 101562.52146 102404.30786
          102175.74325 103213.90873 103130.75188 104201.69056 103354.97703 103129.04222
          104294.4656 103579.84544 102705.25705 103001.93414 104757.92753 104153.90196
          102060.41055 106817.4505 104687.46022 105144.63034 106519.03129 105822.29695
          102347.95581 107139.84987 107751.1165 106396.02653 107237.02739 108540.29902
          107212.11987 105823.6905 107216.49426 105974.67607 106327.53008 107187.56261
          108606.52954 108461.78325 109071.417 107016.55861 108523.3482 107780.88509
          108971.82091 109082.53779 101658.96169 107551.46523 102830.5678 105344.95827
          108599.14665
        </DataArray>
        <DataArray type="Float64" Name="OGS5_TEMPERATURE1" format="ascii" RangeMin="281.34236159" RangeMax="373">
          373 293.00006716 373 292.99999998 373 293
          373 293 292.99893369 293 292.99999877 293
          293 293 292.30178892 290.02674625 293.52063051 292.96706852
          293.00276957 293.00038069 292.99907559 293.00373299 292.99654072 292.94805218
          293.10986669 293.4018402 289.85069795 281.34236159 373 373
          373 373 373 373 292.99995631 293.00000318
          293.000001 292.99999983 293.00000003 293.00000004 293.00000005 292.99999961
          293.00000518 292.99998391 292.99997837 293.00020695 292.99937834 292.99848233
          293.00375999 292.98356784 292.9136605 292.95153706 293.53530115 293.21386463
          289.88125544 291.2182855 373 373 373 373
          373 293.00000001 293 293 293 293
          293 293 293 293 293 293
          293 293 293 292.99999999 293.0000001 293.00000015
          292.99999914 293.00000217 292.99999738 293.00000361 292.99993569 293.0001466
          292.99951267 292.99800853 293.00300626 293.0128438 292.90578748 293.33121961
          293.34522356 291.83401282 289.98159626 294.22490318 373 373
          373 373 373 373 293 293
          293 293 293 293 293 293
          293 293 293 293 293 292.99999997
          293.00000014 292.99999976 292.99999829 293.00000655 293.00001195 292.99998411
          293.00009314 293.00020712 293.00025036 293.00615319 292.97992542 293.24905699
          291.38906486 297.36264243 293 293 293 293
          293 293 293 293 293 293
          293 293 292.99999998 293.00000003 292.99999964 293.00000548
          292.99998493 292.99993775 293.00014501 293 293 293
          293 293 293 293 293 293
          293 292.99999998 293.00000009 293.00000026 293 293
          293 293 293.45164355 292.9144733 293.00022324 293.01046582
          293.00000004 292.99967207 293.00000214 293.45600082 292.98977499 293.00026567
          292.96826346 292.83395276 293.00000292 290.21948468 299.59312851 292.99999946
          290.53650252 292.99996662 293.00013916 286.7317963 298.77328181 292.99817209
          293.01054556 292.98309412 292.96987991 293 292.99996922 293
          293 293.69128194 293 292.38767023 293.00276848 292.99999117
          293.00022369 292.9990328 289.3023959 292.98559185 293.08560736 293
          293 290.9734554 292.99999977 293.00000009 294.13456165 298.95525836
          293.00000005 292.99999429 293.00004577 291.05795477 298.32783679 293.54493776
          290.4796839 293.00000005 293.00000218 293.00000006 293 293.00000617
          293.00007528 292.99901079 293 292.99947341 293 293
          292.99921696 293 293 293.01266993 293 293
          292.99999999 292.99986174 292.99999999 293.00000001 292.99999908 293.10809642
          293.00000002 292.9999998 292.47897475 293.00000009 292.99997743 294.97315757
          293 293 292.99932482 293.00021301 293 292.99999999
          291.63409482 293.01285604 292.99999999 293.00000168 292.9450868 293.68428186
          293.00000737 293.00030131 293.40397685 287.3329743 292.99936781 292.97204498
          295.99319067 292.90218715 293.71762792 292.21541564 293.56360857 293
          293 293 292.99999916 293 293 292.99999941
          293 293 292.99996233 293 293 292.99997759
          293 293 293.00030188 292.99999998 293 293.00000017
          292.99993246 293 293.00000168 293.00553554 293 293.00000028
          292.99995663 293.0062649 293.00000022 292.99998741 293.00015555 292.95787071
          293.00000232 292.99822455 293.00369026 293 293 293
          293 293.0000002 293 293 292.9999991 293
          293 293 293 292.99999786 292.99999991 292.99999639
          293 293 293 293 293 293
          293 293.01105951 293 293.0000036 292.99999999 292.99999999
          292.99481635 293.00000394 293.00000085 293 293.00000351 292.99999076
          293.00014473 292.99992635 293 293 292.92565378 293.00000013
          292.99996548 290.86817257 293.44713083 293.25577734 291.83649116 293
          293 292.99999378 293 293 292.99877227 292.99999997
          293 292.99999999 293.00000004 293 292.99912817 292.99999999
          292.99861401 292.99999456 293.00375319 292.62763367 292.99947001 293.00416641
          293.00000001 292.92321416 291.02846726 293.00000099 293.39391798 293.00000042
          293.0081471 292.9999993 292.99996541 293 292.99999437 292.99999996
          292.9999997 293.01542438 292.99999998 292.99999999 292.88595261 293.00000856
          293 292.87878853 290.4580471 291.00066211 292.99848967 292.9111404
          293.27869403 292.99999896 293.00027424 293 293.00000001 293
          293.01226688 293.00000175 292.99999495 293.00000003 293 293
          293.00000178 293.00547105 293 292.99999997 292.99935582 293.0000017
          293
        </DataArray>
        <DataArray type="Float64" Name="v_ref" NumberOfComponents="2" format="ascii" RangeMin="7.5496412395e-09" RangeMax="8.955953304e-07">
          0 8.955953304e-07 6.4033405664e-09 2.4545366806e-07 5.6994820541e-08 5.6381865298e-07
          2.1130512438e-09 1.6357192022e-07 3.8457283977e-08 4.2871992727e-07 2.2059253277e-10 1.3821477608e-07
          -2.3957569992e-08 2.4316085948e-07 3.0298072451e-09 1.2081572964e-07 1.5075666072e-07 5.7094354878e-09
          4.4183304866e-09 8.5735051393e-08 9.3751479475e-08 6.2642236265e-09 6.0456544264e-09 2.8576951916e-08
          2.9350813657e-08 6.8135171056e-09 5.3384025148e-09 5.3384025171e-09 9.5930660802e-09 5.3668712439e-07
          3.7848775076e-08 4.5036218189e-07 2.1707516519e-08 3.8036099652e-07 1.4566711063e-08 3.2809950434e-07
          1.2193827058e-08 2.8509194266e-07 2.3283064365e-19 2.6043248121e-07 1.536568502e-08 2.5731969645e-07
          3.9490073069e-08 2.7455818813e-07 6.1090256019e-08 2.8853100042e-07 9.1058452864e-08 2.9152345279e-07
          1.2580400418e-07 2.8887098688e-07 1.6849445494e-07 2.8193661055e-07 1.9507138594e-07 2.5759426313e-07
          1.1994489222e-07 1.9652465416e-07 4.0352367471e-08 5.7470281814e-07 4.4561610659e-08 5.9363608754e-07
          5.4329171722e-08 6.4853670372e-07 3.5808532686e-09 7.0747569486e-07 1.1968406367e-08 7.7409050183e-07
          1.3925781713e-08 8.5619541715e-07 6.5130644487e-09 2.2439979637e-07 4.9381965236e-09 2.07857591e-07
          4.141328904e-09 1.9290776722e-07 4.1644288962e-09 1.7845989304e-07 -1.1641532183e-19 1.6957918602e-07
          5.0163093144e-09 1.6877111116e-07 1.2912694005e-08 1.7445937306e-07 2.3718046047e-08 1.7842141333e-07
          3.3545052723e-08 1.8566216136e-07 4.6204005999e-08 1.8783428995e-07 5.9683672202e-08 1.8563863601e-07
          7.4278521213e-08 1.9071091564e-07 9.2202722744e-08 1.926044553e-07 1.0975402117e-07 1.8746525273e-07
          1.2880342921e-07 1.8137590433e-07 1.4819727034e-07 1.7988319298e-07 1.6322483965e-07 1.6961682975e-07
          1.7581512312e-07 1.5766352455e-07 1.9988824278e-07 1.5380520543e-07 2.1846578263e-07 1.3565706711e-07
          2.2316856684e-07 1.1965966654e-07 1.2988319218e-07 1.0720673359e-07 2.5352375981e-08 4.5024648244e-07
          3.6579859656e-08 4.6907631179e-07 4.1628997103e-08 4.9458430745e-07 3.5733531564e-08 5.2157384101e-07
          4.0788426311e-08 5.580194094e-07 0 1.5789654372e-07 2.4868213572e-09 1.5051664379e-07
          1.1641532183e-19 1.4476713564e-07 8.6711587421e-10 1.4261218051e-07 0 1.403571688e-07
          3.6286605867e-10 1.3922627329e-07 8.1738917081e-10 1.3810538995e-07 1.9624888417e-09 1.3835803787e-07
          3.9092543612e-09 1.3832461197e-07 7.4845467225e-09 1.3831376399e-07 1.2013593823e-08 1.3810206473e-07
          1.7357705425e-08 1.3718534026e-07 2.4071589457e-08 1.3640717937e-07 3.0475658782e-08 1.3482439439e-07
          3.9107790737e-08 1.3547037196e-07 4.8779791698e-08 1.3152980139e-07 5.689592928e-08 1.2837690049e-07
          6.7455872283e-08 1.2839575968e-07 7.8827721933e-08 1.2216559365e-07 9.1085450766e-08 1.189118595e-07
          9.9488280147e-08 1.1189956662e-07 1.1082504025e-07 1.0807697228e-07 1.2391692154e-07 9.9945646806e-08
          1.3627425329e-07 9.5207025014e-08 1.4821479109e-07 8.508180245e-08 1.55909438e-07 7.105451916e-08
          1.6822385817e-07 6.316409863e-08 1.7798700481e-07 5.3526977376e-08 1.8838083672e-07 4.1888790551e-08
          1.935710474e-07 2.8708333406e-08 2.0235872006e-07 7.4568710926e-09 1.9204140022e-07 -1.4957229334e-08
          6.8355918817e-08 -3.5571189983e-08 -6.8212427001e-09 2.6892036333e-07 2.198701715e-08 3.3441300261e-07
          4.3556269308e-08 3.621100518e-07 5.0983302329e-08 3.6199043596e-07 4.7370769739e-08 3.7822978162e-07
          4.4791037245e-08 4.0183896105e-07 5.4994395875e-10 1.3757623088e-07 8.9529363932e-10 1.360304671e-07
          1.8391405169e-09 1.3405380963e-07 2.1544150013e-09 1.3013443948e-07 2.5846187287e-09 1.2635543694e-07
          4.9835918686e-09 1.1711443323e-07 9.9864154874e-09 1.1441584542e-07 1.4436237286e-08 1.0992428827e-07
          2.1144328776e-08 1.0520178106e-07 2.6973267618e-08 1.0014366163e-07 3.4449329159e-08 9.7387311655e-08
          4.2481916918e-08 9.2739480953e-08 5.0560454185e-08 8.6798721654e-08 5.9260923589e-08 8.1268180219e-08
          6.8396406754e-08 7.5378973017e-08 7.7387356898e-08 6.8872047167e-08 8.6708649929e-08 6.252978616e-08
          9.5615198082e-08 5.5179764684e-08 1.0388922007e-07 4.7309250053e-08 1.1288606664e-07 3.9033722697e-08
          1.2212149222e-07 3.1461338788e-08 1.312654322e-07 2.3322741574e-08 1.4021458923e-07 1.2851364389e-08
          1.6234441465e-07 5.3096758736e-09 1.7153273982e-07 3.8655439958e-09 1.7902715053e-07 3.4725995426e-09
          1.7496291118e-07 -2.7443283469e-08 4.9690216148e-08 -5.3486020579e-08 2.6588831115e-09 1.1485586866e-07
          3.1714140029e-09 1.0883885663e-07 4.5690897392e-09 1.0313771642e-07 5.0477833621e-09 9.438189945e-08
          7.0236638059e-09 7.9727518202e-08 1.406612674e-08 7.4782617705e-08 1.7010325123e-08 6.8434281598e-08
          2.5141683438e-08 6.3872737095e-08 3.3043434962e-08 5.7188841205e-08 4.0610170949e-08 4.9473179239e-08
          4.8589167529e-08 4.2542149929e-08 5.6213220792e-08 3.4866192913e-08 6.5052296393e-08 2.861680991e-08
          7.3756665322e-08 2.1871882305e-08 8.3424811799e-08 1.2799682513e-08 1.0638765239e-07 6.6836749586e-09
          1.1844856026e-07 6.519651607e-09 1.3014186941e-07 7.0601600874e-09 1.4113812334e-07 7.1288270778e-09
          3.7937750755e-09 7.6751885699e-08 4.0960422572e-09 6.8371102751e-08 6.0926334713e-09 5.991319381e-08
          5.5859069538e-09 4.8982980813e-08 5.8131914294e-09 4.0033680077e-08 8.5670507716e-09 2.1941313913e-08
          1.2749646679e-08 1.4919407333e-08 2.2064512882e-08 1.0127303743e-08 4.1801984009e-08 7.2641843259e-09
          5.128139342e-08 5.7462314639e-09 6.2351746531e-08 5.8793012337e-09 7.3368971904e-08 6.6261322185e-09
          8.4216102151e-08 6.9594001967e-09 3.8844896597e-09 2.0306577799e-08 6.1411201568e-09 1.091600361e-08
          9.3872346686e-09 4.55433167e-09 1.9293084453e-08 4.9799024489e-09 1.0189061106e-07 3.6312412008e-07
          1.3933642769e-07 2.2550462441e-07 3.9258396515e-08 2.2003141485e-07 1.6336712277e-07 1.2097880461e-07
          2.7052405155e-08 1.579456958e-07 1.5410648697e-07 9.7803512668e-09 9.8624433756e-08 1.1773417997e-08
          1.1759880863e-07 3.2586879776e-07 3.5386507164e-08 3.0367874515e-07 2.0205656451e-08 2.3362499404e-07
          5.9718276446e-08 3.3275937527e-07 8.1124194319e-08 3.9870689713e-07 1.3395089639e-08 1.9825900485e-07
          6.6233639571e-08 4.4942339361e-07 1.0786058288e-07 3.1874653255e-07 1.2095395204e-08 1.8642582902e-07
          1.4806427144e-07 3.5752957379e-07 3.4640889817e-08 2.0132605893e-07 5.5619905128e-08 2.0389452633e-07
          1.5527409581e-07 2.8536714154e-07 7.5135713489e-08 3.9979567144e-07 4.5405328654e-08 2.4414087518e-07
          6.9939160666e-08 2.6354366817e-07 1.0058363692e-07 2.5183089036e-07 1.3363590144e-07 2.5298635112e-07
          1.3661004539e-08 1.5688079807e-07 1.8486345716e-08 2.1238654812e-07 1.5634959189e-08 1.4882515434e-07
          5.3569021462e-09 1.4644960365e-07 1.6795971745e-07 2.4686910833e-07 1.7549406308e-09 1.4018626265e-07
          1.9880296904e-07 2.0002787109e-07 8.1247363051e-08 2.2864401582e-07 8.3869716004e-08 1.5276483987e-07
          1.0011348085e-07 1.72061758e-07 7.6814786776e-08 2.0982725686e-07 1.3180027806e-07 1.9881773146e-07
          1.4281281139e-07 2.0084875002e-07 1.6716736623e-07 1.9464326005e-07 5.3639445644e-09 1.416436528e-07
          8.3276025534e-09 1.5061688128e-07 2.0995557575e-07 1.694083307e-07 3.0418773073e-08 1.6708779052e-07
          3.9278551952e-08 1.4744431321e-07 1.2723204532e-07 1.7213902267e-07 1.2672908712e-07 1.7025123195e-07
          4.8544834576e-08 1.4384649275e-07 8.8490810496e-08 1.3548296462e-07 1.0327863471e-07 1.4029532704e-07
          2.1656428289e-07 1.395909285e-07 1.0435011664e-07 2.2242337713e-07 1.8634288435e-07 1.7878083361e-07
          1.5439306624e-07 2.0748970041e-07 1.9766936713e-08 1.647859677e-07 3.7873721133e-08 1.7587180257e-07
          3.6218936931e-08 1.5791468091e-07 2.0275200948e-09 1.4430118143e-07 5.930104472e-08 1.6763281394e-07
          8.4335017141e-08 1.7185718517e-07 1.2500505725e-07 1.5886646906e-07 1.7465104304e-09 1.3672462602e-07
          1.145941788e-07 1.7159248877e-07 4.0295215138e-09 1.317830668e-07 9.9512708932e-09 1.4363487355e-07
          1.3238667784e-07 1.2721302426e-07 1.3107511792e-08 1.2507131022e-07 1.8936653968e-08 1.3055518328e-07
          1.5923758687e-07 1.4545914201e-07 2.057376402e-08 1.2281300868e-07 3.2831646935e-08 1.1682690704e-07
          2.9742330218e-08 1.4265822005e-07 1.3492209899e-07 1.1079326738e-07 4.1161684305e-08 1.2267466619e-07
          4.1963818416e-08 1.0791657858e-07 4.7753092765e-08 1.5795155628e-07 1.9675491705e-07 1.2790970341e-07
          6.1797255765e-08 1.0566735284e-07 6.9615698726e-08 1.1528810476e-07 2.2162351505e-07 1.1649198113e-07
          7.1326240461e-08 9.8343349771e-08 9.6275714032e-08 1.4854187928e-07 1.3443951784e-07 9.0501474087e-08
          5.8061232407e-09 1.2387099881e-07 1.5190941293e-08 1.1787736254e-07 1.4649502939e-07 1.2540330229e-07
          1.213948072e-07 1.182370295e-07 3.0459758097e-08 1.0701713213e-07 5.1751846351e-08 9.9094843674e-08
          2.174631653e-07 5.5679310292e-08 1.6531685254e-07 9.973167713e-08 6.0424156171e-08 9.3044207937e-08
          8.9300925917e-08 8.6198405274e-08 1.8017598336e-07 1.132610996e-07 2.0580405026e-07 8.5637053674e-08
          9.8685163082e-08 6.8677689803e-08 1.2955886041e-07 5.6241425951e-08 1.345382953e-07 6.236057313e-08
          1.4543050863e-07 1.5347761676e-09 1.3635800633e-07 3.6223579007e-08 1.7107335984e-07 1.8815947145e-08
          1.1489627518e-07 2.4094528038e-08 1.7576974063e-07 7.2391437205e-09 1.8998126914e-07 6.473533289e-09
          2.0891799396e-07 2.5042047459e-08 1.9662577602e-07 5.7863081401e-08 4.2837033347e-09 1.3524728551e-07
          8.330074443e-09 1.3398858433e-07 3.6652631282e-09 1.2818962278e-07 8.1323821598e-08 1.0839587791e-07
          5.9467260281e-09 1.0956047817e-07 9.5634892551e-09 1.1962416771e-07 7.9179040089e-08 8.1248699131e-08
          1.5047346684e-08 9.1550150229e-08 2.3294467538e-08 1.1450525205e-07 1.1184169469e-07 7.5224874191e-08
          2.8917522523e-08 8.1864778084e-08 3.6039123922e-08 8.5197853017e-08 1.1245897775e-07 9.0881402536e-08
          3.6854544314e-08 7.1228717864e-08 4.884880514e-08 6.4610556791e-08 1.2803319086e-07 8.2477854948e-08
          5.8510139921e-08 7.0091447821e-08 7.4850617283e-09 8.9788850747e-08 7.0044295162e-08 8.7153886739e-08
          1.1729634972e-07 5.275125371e-08 1.4249471274e-08 8.3004997854e-08 8.8728840305e-08 7.4785970107e-08
          1.5098107196e-07 4.0982457394e-08 4.9695519286e-08 5.4087804651e-08 7.7355822011e-08 4.6094911794e-08
          1.0828774152e-07 6.1098164379e-08 1.5404261152e-07 5.6768024014e-08 7.6943471675e-08 3.3647464398e-08
          1.0814321958e-07 2.4209031138e-08 1.266865775e-07 4.413930426e-08 1.6778596057e-07 4.5023404759e-08
          1.2483163188e-07 1.1606685975e-08 1.4671663639e-07 2.6828764117e-08 1.6662425186e-07 9.0537099002e-09
          1.0686865814e-08 1.0008247465e-07 8.0594992122e-09 6.9780922792e-08 2.3049729297e-08 7.4996676173e-08
          1.0658918437e-08 5.1879957184e-08 7.6677114931e-08 5.7261854997e-08 4.2334553626e-08 5.9546932595e-08
          2.5401767206e-08 3.4627114514e-08 8.4949097351e-08 5.2067257737e-08 1.1634926159e-08 3.3647420133e-08
          3.6022068749e-08 1.4804197309e-08 5.1883514441e-08 2.1154748662e-08 5.7373124233e-08 1.0401793593e-08
          8.9239904969e-08 4.1848303972e-08 8.6115794053e-08 2.7608977267e-08 1.1273368495e-07 1.1516100699e-08
          1.4329655875e-08 6.0825272489e-08 2.2572274368e-08 5.3424796877e-08 8.3874082296e-09 4.3561180402e-08
          3.7229881107e-08 3.7984057533e-08 2.1278300744e-08 2.243815517e-08 4.6853813117e-08 9.3541215197e-09
          1.2573994654e-08 7.2956254068e-09 1.2100499734e-07 2.0740962301e-07 2.0950949997e-08 1.4331430139e-07
          2.3701011855e-08 1.9219161261e-07 5.3083797671e-09 1.5844024483e-07 1.9666058554e-08 1.5547810447e-07
          1.1907148473e-07 2.3200479431e-07 7.2675066729e-08 1.4343165539e-07 1.0502134949e-07 1.2403433698e-07
          1.1787407745e-08 1.6417966175e-07 4.9636160413e-08 1.7354822913e-07 7.1918487395e-08 1.6018545629e-07
          1.0829434238e-07 1.5570304842e-07 1.1981036821e-07 1.3827947995e-07 1.3142089856e-08 1.321141703e-07
          3.333895251e-08 1.2665601685e-07 1.7852914172e-07 1.3597672091e-07 5.9752945156e-08 1.1793060538e-07
          9.4299710979e-08 1.6044205187e-07 2.2239235141e-07 6.7620329858e-08 2.0129858902e-07 1.0764986885e-07
          1.8466807791e-07 1.7791385043e-08 2.1309619355e-07 3.8812466086e-08 2.0330905364e-08 9.6187614711e-08
          2.7300877675e-08 1.2187673663e-07 1.000835174e-07 8.2913242906e-08 2.8316277306e-08 9.1601914108e-08
          2.1761847059e-08 8.646420872e-08 1.3995846516e-07 5.0729453281e-08 6.7220706452e-08 4.0006592825e-08
          5.8216530567e-08 4.71522644e-08 6.295531993e-08 1.8398117065e-08 6.8402910468e-08 1.0675774433e-08
          2.9905509826e-08 4.5332464597e-08 1.4904858094e-07 1.0477872334e-07 2.403686346e-08 1.4934600048e-07
          1.4921824946e-07 1.847062079e-08 2.17911681e-08 2.0129863668e-07 7.1431077613e-08 2.4353018136e-07
          1.6052966485e-07 3.1554290224e-07 6.0573535591e-08 2.2516091432e-07 9.8491426946e-08 2.1861040252e-07
          3.1551096934e-08 1.5088703319e-07 1.5642083652e-07 2.1553529761e-07 2.0447989838e-07 2.1983032706e-07
          7.7373040534e-08 1.331926432e-07 1.7976886849e-07 2.1998413296e-07 5.9698146995e-08 1.51624612e-07
          1.4431255957e-07 1.6318780742e-07 5.8352601353e-08 1.3822682013e-07 7.0626036491e-08 1.7623618597e-07
          2.573616864e-08 1.2915103573e-07 1.3790676625e-07 1.4291085017e-07 5.0100026133e-08 1.2048673471e-07
          4.014934341e-08 1.6601080791e-07 1.6705987795e-07 8.0095838302e-08 5.251016846e-08 1.0998720778e-07
          7.1328471003e-08 1.0691392074e-07 1.822629498e-07 9.1700027055e-08 9.6492561531e-08 9.8238133067e-08
          8.1857606798e-09 1.2914747008e-07 1.8324135261e-07 6.9601116929e-08 1.3690516202e-07 3.0128341004e-08
          2.2234365508e-07 8.8222793554e-08 1.4015396344e-07 6.6991921693e-08 1.7695814031e-07 3.0155541512e-08
          2.0014219309e-07 7.0009100029e-08 8.1864453604e-08 9.3234902639e-08 1.2296711936e-07 6.6096467223e-08
          4.3137113414e-08 8.1816224315e-08 4.8927701955e-08 7.6031713399e-08 5.8471801129e-08 5.8697989639e-08
          1.6185634407e-07 3.0829146495e-08 9.9099376193e-08 3.3923317695e-08 1.1919589238e-07 2.023612037e-08
          6.7623069829e-08 6.3769237557e-08 4.4283392919e-08 2.9679173219e-08 1.8449705991e-08 4.3510831747e-08
          9.4584217206e-08 2.2632905015e-08 1.584905321e-07 1.849255515e-08 1.505298992e-08 1.422705191e-07
          6.7586814234e-08 5.2058915193e-08 1.0545667948e-07 2.0224683442e-07 9.1384910186e-08 1.0893285864e-07
          3.2738863209e-08 2.764358823e-08
        </DataArray>
      </PointData>
      <CellData>
      </CellData>
      <Points>
        <DataArray type="Float64" Name="Points" NumberOfComponents="3" format="ascii" RangeMin="0" RangeMax="1.4142135624">
          0 1 0 0.35 1 0
          0 0.65 0 0.65 1 0
          0 0.35 0 1 1 0
          0 0 0 1 0.7 0
          0.3 0 0 1 0.45 0
          0.55 0 0 1 0.15 0
          0.85 0 0 1 0 0
          0.05 1 0 0.1 1 0
          0.15 1 0 0.2 1 0
          0.25 1 0 0.3 1 0
          0.3146447 0.9646447 0 0.2792893 0.9292893 0
          0.243934 0.893934 0 0.2085786 0.8585786 0
          0.1732233 0.8232233 0 0.137868 0.787868 0
          0.1025126 0.7525126 0 0.0671573 0.7171573 0
          0 0.7 0 0 0.75 0
          0 0.8 0 0 0.85 0
          0 0.9 0 0 0.95 0
          0.4 1 0 0.45 1 0
          0.5 1 0 0.55 1 0
          0.6 1 0 0.6146447 0.9646447 0
          0.5792893 0.9292893 0 0.543934 0.893934 0
          0.5085786 0.8585786 0 0.4732233 0.8232233 0
          0.437868 0.787868 0 0.4025126 0.7525126 0
          0.3671573 0.7171573 0 0.3318019 0.6818019 0
          0.2964466 0.6464466 0 0.2610913 0.6110913 0
          0.2257359 0.5757359 0 0.1903806 0.5403806 0
          0.1550253 0.5050253 0 0.1196699 0.4696699 0
          0.0843146 0.4343146 0 0.0489592 0.3989592 0
          0 0.4 0 0 0.45 0
          0 0.5 0 0 0.55 0
          0 0.6 0 0.7 1 0
          0.75 1 0 0.8 1 0
          0.85 1 0 0.9 1 0
          0.95 1 0 0.9646447 0.9646447 0
          0.9292893 0.9292893 0 0.893934 0.893934 0
          0.8585786 0.8585786 0 0.8232233 0.8232233 0
          0.787868 0.787868 0 0.7525126 0.7525126 0
          0.7171573 0.7171573 0 0.6818019 0.6818019 0
          0.6464466 0.6464466 0 0.6110913 0.6110913 0
          0.5757359 0.5757359 0 0.5403806 0.5403806 0
          0.5050253 0.5050253 0 0.4696699 0.4696699 0
          0.4343146 0.4343146 0 0.3989592 0.3989592 0
          0.3636039 0.3636039 0 0.3282486 0.3282486 0
          0.2928932 0.2928932 0 0.2575379 0.2575379 0
          0.2221825 0.2221825 0 0.1868272 0.1868272 0
          0.1514719 0.1514719 0 0.1161165 0.1161165 0
          0.0807612 0.0807612 0 0.0454058 0.0454058 0
          0 0.05 0 0 0.1 0
          0 0.15 0 0 0.2 0
          0 0.25 0 0 0.3 0
          1 0.95 0 1 0.9 0
          1 0.85 0 1 0.8 0
          1 0.75 0 0.9646447 0.6646447 0
          0.9292893 0.6292893 0 0.893934 0.593934 0
          0.8585786 0.5585786 0 0.8232233 0.5232233 0
          0.787868 0.487868 0 0.7525126 0.4525126 0
          0.7171573 0.4171573 0 0.6818019 0.3818019 0
          0.6464466 0.3464466 0 0.6110913 0.3110913 0
          0.5757359 0.2757359 0 0.5403806 0.2403806 0
          0.5050253 0.2050253 0 0.4696699 0.1696699 0
          0.4343146 0.1343146 0 0.3989592 0.0989592 0
          0.3636039 0.0636039 0 0.25 0 0
          0.2 0 0 0.15 0 0
          0.1 0 0 0.05 0 0
          1 0.65 0 1 0.6 0
          1 0.55 0 1 0.5 0
          0.9646447 0.4146447 0 0.9292893 0.3792893 0
          0.893934 0.343934 0 0.8585786 0.3085786 0
          0.8232233 0.2732233 0 0.787868 0.237868 0
          0.7525126 0.2025126 0 0.7171573 0.1671573 0
          0.6818019 0.1318019 0 0.6464466 0.0964466 0
          0.6110913 0.0610913 0 0.5 0 0
          0.45 0 0 0.4 0 0
          0.35 0 0 1 0.4 0
          1 0.35 0 1 0.3 0
          1 0.25 0 1 0.2 0
          0.9646447 0.1146447 0 0.9292893 0.0792893 0
          0.893934 0.043934 0 0.8 0 0
          0.75 0 0 0.7 0 0
          0.65 0 0 0.6 0 0
          1 0.1 0 1 0.05 0
          0.95 0 0 0.9 0 0
          0.1386669 0.9092954 0 0.2205733 0.7200281 0
          0.3892349 0.8893531 0 0.2592583 0.4408492 0
          0.6333525 0.8281123 0 0.2913113 0.0432503 0