<VTKFile type="UnstructuredGrid" version="1.0" byte_order="LittleEndian" header_type="UInt64">
  <UnstructuredGrid>
    <Piece NumberOfPoints="409" NumberOfCells="736">
      <PointData>
        <DataArray type="Float64" Name="OGS5_PRESSURE1" format="ascii" RangeMin="100000" RangeMax="109989.2177">
          100000 100000 103559.57306 100000 106550.93242 100000
          109987.39584 102982.75875 109948.09785 105461.54057 109917.0925 108422.24259
          109898.3891 109896.04128 100000 100000 100000 100000
          100000 100000 100356.04912 100713.23197 101071.64946 101431.55592
          101792.42482 102154.41578 102517.70437 102882.04211 103057.1325 102554.93511
          102050.50538 101542.98104 101032.43996 100518.45917 100000 100000
          100000 100000 100000 100352.83417 100706.0896 101059.80982
          101414.0517 101768.90061 102124.28013 102480.28607 102836.85268 103193.88805
          103551.58107 103909.55361 104268.07363 104626.78574 104985.75853 105344.9623
          105704.72732 106063.9835 106054.90136 105558.67543 105060.83342 104561.8438
          104060.87805 100000 100000 100000 100000 100000
          100000 100351.73237 100703.49926 101055.33148 101407.26284 101759.3396
          102111.55718 102463.96782 102816.58699 103169.46986 103522.55616 103875.8889
          104229.51506 104583.33431 104937.40945 105291.75087 105646.26444 106000.95624
          106355.75147 106710.68671 107065.70729 107420.71949 107775.72495 108130.51235
          108485.33126 108840.07367 109194.4014 109547.32536 109502.26796 109013.22803
          108521.80722 108030.30488 107538.22216 107045.13004 100497.40316 100994.76167
          101492.01301 101989.13757 102486.06222 103333.91457 103685.05391 104036.26728
          104387.52204 104738.88371 105090.33877 105441.91867 105793.54852 106145.28502
          106497.14338 106849.09602 107201.13201 107553.27918 107905.43421 108257.6492
          108609.86215 108962.15563 109314.43939 109955.99717 109964.40977 109973.15686
          109982.3082 109989.2177 103479.18836 103975.31591 104471.07756 104966.49565
          105811.45367 106161.33682 106511.25079 106861.22336 107211.26306 107561.27286
          107911.34901 108261.43574 108611.53249 108961.73512 109311.9382 109922.1309
          109927.75669 109933.97592 109940.76861 105956.14116 106450.30652 106943.98156
          107437.24553 107929.99218 108770.16834 109118.05562 109465.99236 109900.16555
          109902.44339 109905.27919 109908.66674 109912.60377 108913.99297 109405.27423
          109896.30833 109897.06708 100924.33105 102824.77627 101110.3547 105605.39262
          101714.31072 109524.89983 109408.9354 101281.05315 100500.68537 100534.05671
          100695.23623 100546.97068 100437.71582 100675.38889 102367.1314 100512.12283
          101199.03165 101245.38277 101746.82538 101896.42712 101400.22986 100994.36062
          101295.20266 101894.27091 102295.10677 100969.72575 100584.55413 101365.04708
          100615.6213 102746.70231 100440.96713 103806.16249 101930.18169 103669.32057
          103403.48037 102168.26471 103941.18795 103385.92802 103779.62237 100851.49012
          100744.37029 104463.37098 101595.71291 102654.39513 104830.7952 105393.71665
          103093.23981 104340.02331 104441.06515 105068.01161 104370.89297 104288.98993
          103459.67054 101172.40924 101683.34972 102154.11732 100358.21796 102640.46783
          103116.41443 104195.34094 100986.36182 103695.91145 101881.62286 101185.88554
          105163.33457 102847.92931 102663.12321 104886.67098 103227.91516 103982.40665
          102458.43535 105719.09419 103839.78969 104603.22321 102593.40781 105601.36285
          105047.16212 104763.38159 105908.16937 105509.57755 104037.37367 106671.89097
          102790.88252 103491.28329 105355.44459 105331.516 104424.80741 105184.89691
          107357.23201 106269.73812 105596.85376 106215.98907 105910.22775 106771.45777
          107016.57561 107626.36121 107225.40445 108324.96022 108438.74282 109023.48232
          108875.76813 109473.53271 109418.35574 108314.74599 107614.96061 101445.27195
          101857.61641 102308.77576 105263.8622 104014.16581 103212.05957 106341.63521
          105178.85108 103883.31861 106821.59766 105871.85546 105705.7778 106238.26761
          106460.75754 106816.44563 106684.06228 106663.26264 105252.71836 105985.59209
          107744.6807 105704.99607 106695.42812 108240.10871 107377.57375 107894.44378
          107370.74549 107654.00978 108404.73273 108878.5388 108109.14026 108068.37065
          109461.54125 108791.34793 109502.55543 104614.62261 106441.98622 106176.09013
          107330.15779 107358.32162 107047.98127 108223.24916 107646.11375 108281.60006
          109192.21527 108904.40673 109440.26926 108114.92976 108704.49189 109446.23457
          106896.58356 107299.73252 107769.12467 108087.67126 108807.33212 109433.67983
          109537.17012 102960.77995 101989.23475 100932.37207 100423.50549 101406.70112
          102455.27522 103729.9671 104929.71237 100732.72541 102173.18883 103182.33343
          104049.01246 104691.41229 102280.83031 103395.5542 105259.00428 104454.73039
          103639.00349 106885.1007 106193.35783 108968.72346 107896.44593 104922.82378
          103515.40911 106461.10859 105294.91745 105535.51212 107881.63831 108088.5258
          107733.01007 109062.88249 109446.52287 107702.18512 106015.8487 101852.93245
          109179.5287 100806.66623 101524.52287 101660.52378 101562.52146 102404.30786
          102175.74325 103213.90873 103130.75188 104201.69056 103354.97703 103129.04222
          104294.4656 103579.84544 102705.25705 103001.93414 104757.92753 104153.90196
          102060.41055 106817.4505 104687.46022 105144.63034 106519.03129 105822.29695
          102347.95581 107139.84987 107751.1165 106396.02653 107237.02739 108540.29902
          107212.11987 105823.6905 107216.49426 105974.67607 106327.53008 107187.56261
          108606.52954 108461.78325 109071.417 107016.55861 108523.3482 107780.88509
          108971.82091 109082.53779 101658.96169 107551.46523 102830.5678 105344.95827
          108599.14665
        </DataArray>
        <DataArray type="Float64" Name="OGS5_TEMPERATURE1" format="ascii" RangeMin="281.34236159" RangeMax="373">
          373 293.00006716 373 292.99999998 373 293
          373 293 292.99893369 293 292.99999877 293
          293 293 292.30178892 290.02674625 293.52063051 292.96706852
          293.00276957 293.00038069 292.99907559 293.00373299 292.99654072 292.94805218
          293.10986669 293.4018402 289.85069795 281.34236159 373 373
          373 373 373 373 292.99995631 293.00000318
          293.000001 292.99999983 293.00000003 293.00000004 293.00000005 292.99999961
          293.00000518 292.99998391 292.99997837 293.00020695 292.99937834 292.99848233
          293.00375999 292.98356784 292.9136605 292.95153706 293.53530115 293.21386463
          289.88125544 291.2182855 373 373 373 373
          373 293.00000001 293 293 293 293
          293 293 293 293 293 293
          293 293 293 292.99999999 293.0000001 293.00000015
          292.99999914 293.00000217 292.99999738 293.00000361 292.99993569 293.0001466
          292.99951267 292.99800853 293.00300626 293.0128438 292.90578748 293.33121961
          293.34522356 291.83401282 289.98159626 294.22490318 373 373
          373 373 373 373 293 293
          293 293 293 293 293 293
          293 293 293 293 293 292.99999997
          293.00000014 292.99999976 292.99999829 293.00000655 293.00001195 292.99998411
          293.00009314 293.00020712 293.00025036 293.00615319 292.97992542 293.24905699
          291.38906486 297.36264243 293 293 293 293
          293 293 293 293 293 293
          293 293 292.99999998 293.00000003 292.99999964 293.00000548
          292.99998493 292.99993775 293.00014501 293 293 293
          293 293 293 293 293 293
          293 292.99999998 293.00000009 293.00000026 293 293
          293 293 293.45164355 292.9144733 293.00022324 293.01046582
          293.00000004 292.99967207 293.00000214 293.45600082 292.98977499 293.00026567
          292.96826346 292.83395276 293.00000292 290.21948468 299.59312851 292.99999946
          290.53650252 292.99996662 293.00013916 286.7317963 298.77328181 292.99817209
          293.01054556 292.98309412 292.96987991 293 292.99996922 293
          293 293.69128194 293 292.38767023 293.00276848 292.99999117
          293.00022369 292.9990328 289.3023959 292.98559185 293.08560736 293
          293 290.9734554 292.99999977 293.00000009 294.13456165 298.95525836
          293.00000005 292.99999429 293.00004577 291.05795477 298.32783679 293.54493776
          290.4796839 293.00000005 293.00000218 293.00000006 293 293.00000617
          293.00007528 292.99901079 293 292.99947341 293 293
          292.99921696 293 293 293.01266993 293 293
          292.99999999 292.99986174 292.99999999 293.00000001 292.99999908 293.10809642
          293.00000002 292.9999998 292.47897475 293.00000009 292.99997743 294.97315757
          293 293 292.99932482 293.00021301 293 292.99999999
          291.63409482 293.01285604 292.99999999 293.00000168 292.9450868 293.68428186
          293.00000737 293.00030131 293.40397685 287.3329743 292.99936781 292.97204498
          295.99319067 292.90218715 293.71762792 292.21541564 293.56360857 293
          293 293 292.99999916 293 293 292.99999941
          293 293 292.99996233 293 293 292.99997759
          293 293 293.00030188 292.99999998 293 293.00000017
          292.99993246 293 293.00000168 293.00553554 293 293.00000028
          292.99995663 293.0062649 293.00000022 292.99998741 293.00015555 292.95787071
          293.00000232 292.99822455 293.00369026 293 293 293
          293 293.0000002 293 293 292.9999991 293
          293 293 293 292.99999786 292.99999991 292.99999639
          293 293 293 293 293 293
          293 293.01105951 293 293.0000036 292.99999999 292.99999999
          292.99481635 293.00000394 293.00000085 293 293.00000351 292.99999076
          293.00014473 292.99992635 293 293 292.92565378 293.00000013
          292.99996548 290.86817257 293.44713083 293.25577734 291.83649116 293
          293 292.99999378 293 293 292.99877227 292.99999997
          293 292.99999999 293.00000004 293 292.99912817 292.99999999
          292.99861401 292.99999456 293.00375319 292.62763367 292.99947001 293.00416641
          293.00000001 292.92321416 291.02846726 293.00000099 293.39391798 293.00000042
          293.0081471 292.9999993 292.99996541 293 292.99999437 292.99999996
          292.9999997 293.01542438 292.99999998 292.99999999 292.88595261 293.00000856
          293 292.87878853 290.4580471 291.00066211 292.99848967 292.9111404
          293.27869403 292.99999896 293.00027424 293 293.00000001 293
          293.01226688 293.00000175 292.99999495 293.00000003 293 293
          293.00000178 293.00547105 293 292.99999997 292.99935582 293.0000017
          293
        </DataArray>
        <DataArray type="Float64" Name="pressure_ref" format="ascii" RangeMin="100000" RangeMax="109988.26486">
          100000 100000 103558.96296 100000 106550.10846 100000
          109986.36028 102982.57821 109947.46444 105461.24091 109916.60588 108421.86265
          109897.98804 109895.65089 100000 100000 100000 100000
          100000 100000 100356.00513 100713.13689 101071.49837 101431.34054
          101792.13136 102154.04335 102517.33035 102881.45775 103056.50878 102554.26996
          102049.89186 101542.44542 101032.07569 100518.26348 100000 100000
          100000 100000 100000 100352.80672 100706.03268 101059.72121
          101413.9289 101768.74072 102124.08074 102480.04432 102836.56644 103193.55564
          103551.19979 103909.12466 104267.59698 104626.25721 104985.16706 105344.32964
          105704.11061 106063.20127 106054.09631 105557.85614 105060.05343 104561.10638
          104060.20662 100000 100000 100000 100000 100000
          100000 100351.71012 100703.4546 101055.26411 101407.1723 101759.22521
          102111.4183 102463.80359 102816.39646 103169.25187 103522.30982 103875.61316
          104229.20872 104582.99659 104937.03936 105291.34737 105645.82692 106000.484
          106355.24422 106710.14355 107065.12738 107420.10344 107775.0735 108129.81028
          108484.58683 108839.32309 109193.62029 109546.32973 109501.24735 109012.24419
          108520.92175 108029.46343 107537.38243 107044.29503 100497.3718 100994.69914
          101491.91982 101989.01429 102485.90979 103333.71444 103684.83427 104036.02779
          104387.26253 104738.6037 105090.03786 105441.59631 105793.20451 106144.91887
          106496.75456 106848.68408 107200.69652 107552.81955 107904.95026 108257.14046
          108609.32832 108961.59598 109313.85351 109955.32317 109963.69419 109972.37912
          109981.53689 109988.26486 103478.98094 103975.08297 104470.82078 104966.21658
          105811.14007 106161.00942 106510.90944 106860.8678 107210.89297 107560.88838
          107910.94981 108261.02175 108611.10364 108961.29087 109311.47851 109921.62099
          109927.22059 109933.41053 109940.17075 105955.82292 106449.97167 106943.63231
          107436.88374 107929.62019 108769.78345 109117.66595 109465.59769 109899.7564
          109902.02387 109904.84673 109908.21879 109912.13778 108913.60735 109404.88506
          109895.91673 109896.67203 100924.14037 102824.41162 101110.23822 105604.85482
          101714.18252 109524.26143 109408.44328 101280.81347 100500.61134 100533.99787
          100695.11572 100546.85079 100437.67542 100675.2133 102366.53166 100512.07888
          101198.83387 101245.2641 101746.65129 101896.04766 101399.73722 100994.24361
          101295.03149 101894.02063 102294.77733 100969.65562 100584.49553 101364.95238
          100615.57985 102746.27686 100440.93884 103805.65674 101929.95692 103669.01233
          103403.15442 102168.0355 103940.56926 103385.52791 103779.15362 100851.43459
          100744.31859 104462.83247 101595.58649 102654.20184 104830.07243 105392.93537
          103093.01226 104339.67772 104440.68862 105067.41528 104370.18367 104288.44873
          103459.13822 101172.31906 101683.2087 102153.95309 100358.19425 102640.24498
          103116.13005 104194.93394 100986.29964 103695.54668 101881.50553 101185.80648
          105162.87687 102847.75248 102662.9526 104886.17125 103227.71318 103982.15573
          102458.2641 105718.6098 103839.53689 104602.93547 102593.20486 105600.74884
          105046.83191 104763.0499 105907.52975 105509.21631 104037.02877 106671.08876
          102790.71197 103491.07073 105354.94939 105331.07384 104424.53857 105184.57507
          107356.54822 106269.17301 105596.50467 106215.57402 105909.64599 106770.77235
          107016.12164 107625.82818 107224.58925 108324.14022 108438.17577 109022.79709
          108874.85143 109472.80331 109417.5574 108314.01118 107614.25769 101445.18092
          101857.49884 102308.63324 105263.4927 104013.93032 103211.86452 106341.23425
          105178.55991 103883.08133 106821.12329 105871.52932 105705.45237 106237.81051
          106460.4065 106816.07239 106683.56098 106662.8821 105252.42623 105985.21631
          107744.17272 105704.6842 106695.00091 108239.50733 107377.18487 107894.00786
          107370.26403 107653.41853 108404.28922 108878.03181 108108.60375 108067.73415
          109460.98994 108790.74762 109501.8733 104614.35757 106441.65086 106175.75723
          107329.79719 107357.89788 107047.60877 108222.86503 107645.66983 108281.22038
          109191.81315 108903.99176 109439.84426 108114.4693 108704.02971 109445.71439
          106896.2333 107299.36817 107768.75484 108087.2807 108806.94207 109433.2664
          109536.77864 102960.43666 101989.09898 100932.28908 100423.47487 101406.59882
          102454.96551 103729.67497 104929.31469 100732.66998 102173.00429 103182.06657
          104048.64259 104690.99713 102280.68523 103395.33166 105258.45326 104454.42629
          103638.67778 106884.43598 106192.7094 108967.98158 107895.74458 104922.54076
          103515.18673 106460.66683 105294.61391 105535.20323 107881.07414 108088.10135
          107732.60375 109062.4525 109446.08229 107701.80727 106015.32508 101852.80099
          109178.91235 100806.59035 101524.33771 101660.22273 101562.34973 102404.03178
          102175.58507 103213.48756 103130.30938 104201.37088 103354.502 103128.79634
          104294.02166 103579.57983 102705.01425 103001.73944 104757.47371 104153.62451
          102060.24514 106816.85786 104687.15657 105144.28227 106518.41865 105821.88176
          102347.80955 107139.21115 107750.29788 106395.37928 107236.48221 108539.61432
          107211.42974 105823.30144 107215.98734 105974.33476 106327.1707 107187.16835
          108605.88791 108461.29931 109070.88334 107016.15637 108522.94491 107780.51193
          108971.34027 109081.89124 101658.85059 107551.05053 102830.26009 105344.56828
          108598.75218
        </DataArray>
        <DataArray type="Float64" Name="temperature_ref" format="ascii" RangeMin="281.81935313" RangeMax="373">
          373 293.00011488 373 292.99999993 373 293
          373 293 292.99800596 293 292.99999714 293
          293 293 293.03842579 289.48033305 293.61592104 292.95959071
          293.00436286 293.00061769 292.99832275 293.00726419 292.98944681 292.93193922
          293.14403303 293.43299811 289.3399775 281.81935313 373 373
          373 373 373 373 292.9999435 292.99999191
          293.00000487 292.99999933 293.00000013 293.00000015 293.00000013 292.99999953
          293.00000823 292.99996832 292.99996218 293.0003783 292.99887667 292.99768576
          293.00642443 292.97891963 292.89401657 292.95290014 293.64716622 293.22712088
          289.42628498 291.66037946 373 373 373 373
          373 293.00000003 293 293 293 293
          293 293 293 293 293 293
          293 293 292.99999998 293.00000002 293.00000028 293.00000036
          292.99999807 293.0000045 292.99999472 293.0000046 292.99987089 293.00032156
          292.99895791 292.99853961 293.00649802 293.01117087 292.89298738 293.399842
          293.40863448 291.55731598 289.52934352 294.8789607 373 373
          373 373 373 373 293 293
          293 293 293 293 293 293
          293 293 293 293 293 292.99999992
          293.00000038 292.99999927 292.99999694 293.00001446 293.00002017 292.9999708
          293.00016435 293.00027019 293.00034023 293.01186526 292.96153537 293.31854456
          291.0220065 297.54947663 293 293 293 293
          293 293 293 293 293 293
          293.00000001 292.99999999 292.99999997 293.00000013 292.99999948 293.00001407
          292.99995442 292.9999266 293.00029379 293 293 293
          293 293 293 293 293 293
          293 292.99999998 293.00000014 293.0000005 293 293
          293 293 293.51580002 292.89437048 293.00039376 293.01530649
          293.00000018 292.99971582 293.00000374 293.5566847 292.98049395 293.0004471
          292.97491936 292.80956424 293.00000717 290.35848466 300.33352928 292.9999983
          290.05404095 292.99994019 293.00025249 286.54236283 299.69163109 292.99697131
          293.01541514 292.97489569 292.97091424 293 292.99995283 293
          293 293.82227952 293 292.26396643 293.00425388 292.99997871
          293.00038878 292.99833937 289.64813854 292.975805 293.10599724 293
          293 290.57349313 292.99999925 293.00000012 294.55504269 299.48585991
          292.99999992 292.99998767 293.00009474 290.73557334 298.92755253 293.64479259
          290.42155267 293.00000005 293.00000524 292.99999995 293 293.00001054
          293.00014438 292.99833918 293 292.99898937 293 293
          292.99841866 293 293 293.0123598 293 293.00000001
          292.99999999 292.99959754 292.99999995 293.00000002 292.99999871 293.15833358
          293.00000006 292.99999962 292.32268351 293.00000014 292.99995681 295.38678478
          293 293 293.00000474 293.00042824 293 292.99999998
          291.3652582 293.01505316 293.00000001 293.00000386 292.92584461 293.81079912
          293.00001151 293.00052215 293.82349235 287.50152071 292.99901629 292.95683229
          296.45133899 292.89561739 293.83953853 292.09645011 293.66382904 293
          293 293 292.99999816 293 293 292.99999854
          293 293 292.99995157 293 293 292.9999747
          293 293.00000001 293.00034207 292.99999993 293 293.00000033
          292.99988442 293 293.00000422 293.00764802 293.00000001 293.00000049
          292.99991296 293.00911964 293.00000038 292.99997717 293.00023853 292.94585421
          293.00002888 292.99770957 293.00156093 293 293 293
          293 293.00000043 293 293 292.99999766 293
          293 293.00000001 293 292.99999621 292.9999995 292.99999241
          293 293 293 293 293 293
          293 293.01514657 293.00000001 293.00000792 292.99999997 292.99999999
          292.98938407 293.00000909 293.00000764 293 293.00000604 292.99998181
          293.00027403 292.99977015 293 293 292.90235995 293.00000028
          292.99994431 290.50197252 293.53608283 293.317849 291.57320893 293
          293 292.99998451 293 293 292.99823099 292.99999999
          292.99999998 292.99999997 293.00000003 293 292.99895349 292.99999995
          292.9974869 292.99998008 293.00606576 292.58088433 292.99906854 293.00710136
          293.00000007 292.9208791 290.73587167 293.00000191 293.47026197 293.00000118
          293.01062265 292.99999825 292.99993414 293.00000001 293.00113069 292.9999999
          292.99999954 293.01440386 292.99999996 292.99999999 292.86866886 293.00001574
          293 292.85635052 290.7705456 290.64216858 292.99721875 292.89625513
          293.34785727 292.99999813 293.00052567 293 293.00000002 292.99999999
          293.01437248 293.00000434 292.99999027 293.00000009 293 293
          293.00000319 293.0100791 293 292.99999995 292.99900997 293.00000554
          293
        </DataArray>
        <DataArray type="Float64" Name="v_x_ref" format="ascii" RangeMin="-2.464263226e-08" RangeMax="2.2198520224e-07">
          0 6.3755887821e-09 5.636340406e-08 2.1043761296e-09 3.8026817197e-08 2.1969750826e-10
          -2.464263226e-08 3.0175691252e-09 1.5010521045e-07 4.4005209074e-09 9.3366279078e-08 6.0211179043e-09
          2.9231379895e-08 5.3166949754e-09 9.3975190149e-09 3.7715511641e-08 2.1602891391e-08 1.4491872003e-08
          1.2141936051e-08 2.3283064365e-19 1.5296388435e-08 3.9319146926e-08 6.0819035928e-08 9.0598621033e-08
          1.2523195408e-07 1.6791704124e-07 1.9379867217e-07 1.1873283892e-07 3.9799625836e-08 4.3898434228e-08
          5.3369046319e-08 3.3416844397e-09 1.1555818872e-08 1.3518086997e-08 6.484978385e-09 4.9172919931e-09
          4.1239864472e-09 4.1471726855e-09 -1.1641532183e-19 4.9956746431e-09 1.285936773e-08 2.361986538e-08
          3.3405476271e-08 4.6011674046e-08 5.943634319e-08 7.3970681792e-08 9.1820879376e-08 1.0930123931e-07
          1.2828651821e-07 1.4760815159e-07 1.6255706391e-07 1.7506099094e-07 1.9924318258e-07 2.1799955932e-07
          2.2198520224e-07 1.2888871575e-07 2.4967828228e-08 3.6112740905e-08 4.1117508201e-08 3.5315002964e-08
          4.0363262119e-08 0 2.4766805759e-09 1.1641532183e-19 8.635914948e-10 0
          3.6139292569e-10 8.1407166135e-10 1.9545252882e-09 3.8933903559e-09 7.4541740104e-09 1.1964855936e-08
          1.7287313444e-08 2.3974030848e-08 3.035231738e-08 3.8949583156e-08 4.8582905896e-08 5.6666845319e-08
          6.7184824581e-08 7.851206759e-08 9.072231362e-08 9.9092848306e-08 1.1038619093e-07 1.234290742e-07
          1.357400644e-07 1.4763616511e-07 1.5530211861e-07 1.675820119e-07 1.7723946188e-07 1.8770635255e-07
          1.9294186716e-07 2.0147561725e-07 1.9054525356e-07 6.7004265676e-08 -7.2575381799e-09 2.1424877798e-08
          4.3009192887e-08 5.0507074056e-08 4.6946584866e-08 4.435415504e-08 5.4771339457e-10 8.9166297761e-10
          1.8316874847e-09 2.145693621e-09 2.5741687517e-09 4.9634754502e-09 9.9461252778e-09 1.4378034381e-08
          2.1059145265e-08 2.6864654286e-08 3.4310687144e-08 4.2311044714e-08 5.0357172685e-08 5.9022702276e-08
          6.8121437824e-08 7.7076035482e-08 8.6359375945e-08 9.5229186693e-08 1.0346816984e-07 1.1242600222e-07
          1.2162006998e-07 1.3072094317e-07 1.3962306115e-07 1.6163138116e-07 1.7071311768e-07 1.7824374062e-07
          1.7363889645e-07 4.8233913822e-08 2.648155394e-09 3.1586257884e-09 4.5506739575e-09 5.0274418612e-09
          6.9953435904e-09 1.4009391718e-08 1.694165898e-08 2.504014275e-08 3.2909839136e-08 4.0445781019e-08
          4.8392193671e-08 5.5984942353e-08 6.4787555319e-08 7.3455800656e-08 8.3083300803e-08 1.0594844739e-07
          1.1795622003e-07 1.2959630813e-07 1.4053908642e-07 3.778469462e-09 4.079506274e-09 6.0680095758e-09
          5.5632962613e-09 5.7896223584e-09 8.5322522625e-09 1.2697825255e-08 2.1974772297e-08 4.1631761385e-08
          5.1072372603e-08 6.20972556e-08 7.3069008776e-08 8.3870916124e-08 3.8687113372e-09 6.1161566047e-09
          9.349058264e-09 1.9214600418e-08 1.016746632e-07 1.3870573074e-07 3.9090662489e-08 1.627493124e-07
          2.6941823882e-08 1.53440374e-07 9.8219008538e-08 1.1720022929e-07 3.5221952505e-08 2.0118573056e-08
          5.9406932853e-08 8.0865459082e-08 1.333869106e-08 6.5564172689e-08 1.0639955004e-07 1.2045017824e-08
          1.4722525613e-07 3.44951154e-08 5.5385893413e-08 1.539100661e-07 7.3965373354e-08 4.5203342994e-08
          6.9635063822e-08 1.0013325267e-07 1.3299654093e-07 1.3605130898e-08 1.840754179e-08 1.5571270726e-08
          5.3350972234e-09 1.6741846218e-07 1.7478125802e-09 1.9807633772e-07 8.0898617899e-08 8.3531081748e-08
          9.9706854246e-08 7.6489457771e-08 1.3085888333e-07 1.4222649397e-07 1.6650148497e-07 5.3421491257e-09
          8.2936440475e-09 2.0887761411e-07 3.0293813057e-08 3.9118936495e-08 1.2610321752e-07 1.2545192749e-07
          4.8348134529e-08 8.813654909e-08 1.0286666432e-07 2.1542869444e-07 1.0343646402e-07 1.8572527382e-07
          1.5340043029e-07 1.9685744176e-08 3.7717316182e-08 3.6071020875e-08 2.0192753345e-09 5.9058249253e-08
          8.3990826684e-08 1.2450501299e-07 1.7394262291e-09 1.1413025432e-07 4.0132028842e-09 9.9108084451e-09
          1.3186632735e-07 1.3054529661e-08 1.8860027064e-08 1.5862369272e-07 2.0490667829e-08 3.2699326411e-08
          2.9621604084e-08 1.3439398465e-07 4.0995734957e-08 4.1794991454e-08 4.7558299581e-08 1.9604383845e-07
          6.154937233e-08 6.9336729225e-08 2.2090265579e-07 7.1040605856e-08 9.5889247989e-08 1.3340380724e-07
          5.7826563968e-09 1.5129636013e-08 1.4592276228e-07 1.2091672619e-07 3.0337105945e-08 5.1543947326e-08
          2.1665801673e-07 1.6469179317e-07 6.0181634903e-08 8.8943976824e-08 1.7945094918e-07 2.0524706375e-07
          9.8289229226e-08 1.290388851e-07 1.3356509325e-07 1.4452633538e-07 1.3579822375e-07 1.7031399078e-07
          1.1369028998e-07 1.7489513279e-07 1.8932387641e-07 2.0819237771e-07 1.960119389e-07 4.266336216e-09
          8.2963180866e-09 3.6504330944e-09 8.0998907524e-08 5.9227477414e-09 9.5248717984e-09 7.8861575787e-08
          1.4986720916e-08 2.3200545267e-08 1.11395566e-07 2.8801011776e-08 3.5894034609e-08 1.1201285951e-07
          3.6705922027e-08 4.86517168e-08 1.2752732428e-07 5.8274425102e-08 7.4548983738e-09 6.9763389608e-08
          1.1682255724e-07 1.4192036631e-08 8.8373092684e-08 1.5036817934e-07 4.9494544135e-08 7.7042237238e-08
          1.0785228827e-07 1.5343313788e-07 7.6630454744e-08 1.0769918884e-07 1.2617214524e-07 1.6710222525e-07
          1.2431185139e-07 1.4610256977e-07 1.6589080707e-07 1.0643803675e-08 8.0269662605e-09 2.2956778057e-08
          1.0615788552e-08 7.6367504039e-08 4.216351556e-08 2.529871563e-08 8.4605544901e-08 1.1587725422e-08
          3.5875531201e-08 5.1672351302e-08 5.7139212807e-08 8.8877530654e-08 8.5764396394e-08 1.122675583e-07
          1.4271752347e-08 2.2480966918e-08 8.3534301232e-09 3.7078875986e-08 2.119184501e-08 4.6662983122e-08
          1.2522858959e-08 1.2050795934e-07 2.0865840134e-08 2.3601940064e-08 5.2866373982e-09 1.9585711435e-08
          1.1856287827e-07 7.2382190926e-08 1.0460426271e-07 1.1738983214e-08 4.9431748235e-08 7.1626066746e-08
          1.0786059022e-07 1.1933582815e-07 1.3088868465e-08 3.320432994e-08 1.7779737581e-07 5.9512938376e-08
          9.3918679801e-08 2.2130371631e-07 2.0067033348e-07 1.8389837915e-07 2.1226297028e-07 2.0249015207e-08
          2.7190695097e-08 9.9684092644e-08 2.8202258092e-08 2.1674173312e-08 1.3939232565e-07 6.6947895465e-08
          5.7980740154e-08 6.2698709453e-08 6.8123623809e-08 2.9784388372e-08 1.48467668e-07 2.3938940202e-08
          1.48583118e-07 2.1699446824e-08 7.1118976996e-08 1.6000871128e-07 6.031192417e-08 9.8076001361e-08
          3.1422596442e-08 1.5569930534e-07 2.0358885502e-07 7.7062687372e-08 1.7921187416e-07 5.9455900958e-08
          1.4374956289e-07 5.8117007059e-08 7.0335850611e-08 2.5632121054e-08 1.3736377942e-07 4.9898401868e-08
          3.9984616194e-08 1.664286006e-07 5.2299188358e-08 7.1042925129e-08 1.8152546793e-07 9.6108491186e-08
          8.1526351316e-09 1.8249028338e-07 1.3603790698e-07 2.2140450194e-07 1.3959678678e-07 1.7618097358e-07
          1.9954033433e-07 8.153715032e-08 1.2247611875e-07 4.2963464198e-08 4.8730672323e-08 5.8235641792e-08
          1.6118863593e-07 9.869508675e-08 1.187032883e-07 6.7350399789e-08 4.4103497119e-08 1.8374961884e-08
          9.4196882342e-08 1.5781781139e-07 1.4991831635e-08 6.7313408063e-08 1.0501580778e-07 9.1020855612e-08
          3.2605885224e-08
        </DataArray>
        <DataArray type="Float64" Name="v_y_ref" format="ascii" RangeMin="-5.2918014987e-08" RangeMax="8.9273357364e-07">
          8.9273357364e-07 2.4444480094e-07 5.6312504628e-07 1.6290930843e-07 4.283657975e-07 1.3765563886e-07
          2.4317151267e-07 1.2032702038e-07 5.6773060348e-09 8.5387789416e-08 6.2377679906e-09 2.8460817332e-08